LAMMPS data file via write_data, version 7 Jan 2022, timestep = 398

42 atoms
6 atom types

0.03968626286932501 8.730758570130687 xlo xhi
0.03436931179411973 7.5610587090059145 ylo yhi
0 100 zlo zhi
4.34553616581938 0 0 xy xz yz

Masses

1 183.84
2 78.95999999999999
3 78.95999999999999
4 183.84
5 78.95999999999999
6 78.95999999999999

Atoms # atomic

1 2 6.866460696791876 0.39454484588268474 2.648474357792946 -1 1 0
2 3 6.8705277889180225 0.40270138480222617 5.933280240769107 -1 1 0
3 2 1.2837564478142738 1.4688114191202173 2.648474357808825 0 1 0
4 3 1.2887866724043915 1.4612109451013846 5.9332802407407 0 1 0
5 2 4.385222622717049 2.543266031743062 2.651093397239806 0 1 0
6 3 4.385222622384161 2.543266031665294 5.943263995290719 0 1 0
7 2 10.59171896312387 4.6947389901387675 2.651628195529316 -1 0 0
8 3 10.590970098772468 4.6966559449871355 5.942682239400363 -1 0 0
9 1 9.971788083628681 6.488081460746329 4.29586846605614 -1 0 0
10 2 5.005450723626765 5.7664418308005105 2.6484743574418523 0 0 0
11 3 4.996353408133453 5.76588576607242 5.933280239623747 0 0 0
12 1 0.03968646534502621 0.03436956709668972 4.289424107873909 0 1 0
13 2 8.109816529246865 6.842513044058865 2.651628195399227 0 0 0
14 3 8.108530830236786 6.840906030969879 5.94268223920815 0 0 0
15 1 3.146868571228869 1.1070629256243816 4.29483053266264 0 1 0
16 1 6.248188023364209 2.1889215213417255 4.294830532867787 0 1 0
17 1 9.3537864272559 3.2594401170733645 4.295868466339736 -1 0 0
18 1 3.760611273396676 4.33381365062016 4.294830532472162 0 0 0
19 2 7.490740848702045 3.6192354581547224 2.651628195615356 0 0 0
20 3 7.49277541133041 3.6189255164019936 5.942682239787768 0 0 0
21 1 6.866701830421228 5.408965917226086 4.295868465808131 0 0 0
22 5 8.730758738171856 5.052162470593311 9.370341440412925 -1 0 0
23 6 8.730758737962125 5.05216247032542 12.66251203846385 -1 0 0
24 5 11.21606390993616 7.192727117132194 9.380325194903062 -1 0 0
25 6 11.21199681863246 7.20088365644215 12.665131077876632 -1 0 0
26 5 9.341889512337039 1.8295427357262333 9.380325194996054 -1 1 0
27 6 9.35098682828879 1.8289866713786853 12.665131077930933 -1 1 0
28 4 8.106147382431331 3.2616148527918596 11.018774902844097 -1 0 0
29 5 3.147239216756419 3.976502985147245 9.37092319647568 0 0 0
30 6 3.1452046531523616 3.976193043695896 12.66197724029995 0 0 0
31 4 10.593724139151668 5.406506981735191 11.01877490301766 -1 0 0
32 5 5.634322790389672 6.1342175572464 9.380325196078351 0 0 0
33 6 5.629292566411618 6.12661708332224 12.665131078259773 0 0 0
34 4 0.03968642148094677 0.034369539084420704 11.02418132782651 0 1 0
35 5 3.762994623860267 0.7545224712902437 9.370923196331924 0 1 0
36 6 3.7642803232908224 0.7529154582573954 12.661977240184727 0 1 0
37 4 2.521165628113156 2.1864625858223103 11.017736969672018 0 1 0
38 5 6.245433900639951 2.898772558101559 9.370923195907048 0 0 0
39 6 6.2461827645106975 2.90068951191595 12.66197724008239 0 0 0
40 4 5.008250232496831 4.335988386232151 11.017736969877541 0 0 0
41 4 7.492404690327049 6.488365577788137 11.01877490323705 0 0 0
42 4 5.6262518778964905 1.107347042939086 11.017736969347823 0 1 0

Velocities

1 -6.128126693128368e-06 5.102380613683547e-06 0.0006324952950462466
2 7.330563612739502e-06 3.5745425709674554e-05 0.0006026397810409042
3 7.48409885798788e-06 2.7583637897036468e-06 0.000632495296187054
4 2.729245636360293e-05 -2.421869097872179e-05 0.0006026397787255623
5 1.319442327833083e-09 8.463684159928429e-10 0.0006401562082029036
6 1.2978923738681759e-09 8.422388681211397e-10 0.0006343739063157999
7 -4.7812499246228524e-06 2.5347423524365747e-06 0.0006428265561773988
8 -7.245572069406652e-06 9.241133007750437e-06 0.0006327775490844755
9 -8.264540268826425e-07 6.742394025088071e-06 0.000630783930052025
10 -1.3520073419499913e-06 -7.858168480858705e-06 0.0006324952718499872
11 -3.4618975074453735e-05 -1.1524146708823794e-05 0.0006026397045425767
12 1.338411581933519e-09 8.666723142175673e-10 0.000610326493532559
13 1.981886086528696e-07 -5.407911808879359e-06 0.0006428265481522135
14 -4.37752810022762e-06 -1.0895281577678002e-05 0.0006327775361904112
15 1.0644220270504783e-05 -7.534263334048219e-06 0.0006265326490517248
16 1.2054573549547944e-06 1.298541278575511e-05 0.0006265326608383763
17 6.2535394900072136e-06 -2.6530259226611173e-06 0.0006307839472119923
18 -1.1845734000233875e-05 -5.448610271837461e-06 0.000626532635466691
19 4.587010927010599e-06 2.875703795811408e-06 0.0006428265612703475
20 1.1627002176800116e-05 1.6566819208248869e-06 0.0006327775724138014
21 -5.423126543464726e-06 -4.086812541348042e-06 0.0006307839126474656
22 -1.3026125315719414e-09 -8.353052713206285e-10 -0.0006343737562363584
23 -1.3150288308051978e-09 -8.530339391455673e-10 -0.000640156056543827
24 7.3278538154424464e-06 -3.574544125386403e-05 -0.0006026396277935314
25 -6.130786366787289e-06 -5.102372662981538e-06 -0.0006324951446096729
26 -3.462165093155409e-05 1.152412126352981e-05 -0.0006026396216119628
27 -1.354650796812234e-06 7.858170244452045e-06 -0.0006324951409363149
28 -1.1848348139002944e-05 5.448614900401655e-06 -0.0006265329437899307
29 1.1624428086580296e-05 -1.6567234934076212e-06 -0.0006327773875122165
30 4.584371472918626e-06 -2.8757247724816635e-06 -0.0006428263965165947
31 1.2028300114478535e-06 -1.2985428886631805e-05 -0.0006265329341289046
32 2.7289771205664348e-05 2.4218701999855104e-05 -0.0006026395494977221
33 7.481455813471398e-06 -2.7583477994477905e-06 -0.000632495119208231
34 -1.3413719949414734e-09 -8.620329360402633e-10 -0.0006103267813815051
35 -4.380191972581323e-06 1.0895287331828291e-05 -0.0006327773965974772
36 1.955519084870405e-07 5.407921508240763e-06 -0.0006428264037555286
37 -5.425781574169495e-06 4.086793633778238e-06 -0.0006307842120628606
38 -7.248152804668887e-06 -9.241073975681112e-06 -0.0006327774226011684
39 -4.783861082760654e-06 -2.5347501021789377e-06 -0.0006428264094455868
40 6.250923481577244e-06 2.6530248380481364e-06 -0.0006307841974077768
41 1.0641579382543515e-05 7.534268064296102e-06 -0.0006265329185524986
42 -8.291021738921251e-07 -6.7423721017454546e-06 -0.0006307842319294827
