LAMMPS data file via write_data, version 7 Jan 2022, timestep = 550

42 atoms
6 atom types

-0.05131676166710391 8.821761594667091 xlo xhi
-0.04444161920230807 7.639869640002264 ylo yhi
0 100 zlo zhi
4.436539190611015 0 0 xy xz yz

Masses

1 183.84
2 78.95999999999999
3 78.95999999999999
4 183.84
5 78.95999999999999
6 78.95999999999999

Atoms # atomic

1 2 6.917302532579837 0.3249230478631049 2.822189110929405 -1 1 0
2 3 6.922861694360805 0.332593687845079 5.928877227947688 -1 1 0
3 2 1.2207920423361165 1.4201865432144045 2.82218911097275 0 1 0
4 3 1.2246554312814253 1.4115368484035764 5.928877227903358 0 1 0
5 2 4.3852226271434525 2.516995726620636 2.8242965828155637 0 1 0
6 3 4.385222626713864 2.5169957266318703 5.944621459639522 0 1 0
7 2 10.720792051302249 4.714419972965514 2.825213914883541 -1 0 0
8 3 10.719574950102517 4.715904505687585 5.944121180304274 -1 0 0
9 1 10.088200008135987 6.544692101205651 4.382996292970151 -1 0 0
10 2 5.017573306736093 5.805877589753617 2.822189110614652 0 0 0
11 3 5.00815075725359 5.8068566446126155 5.92887722613066 0 0 0
12 1 -0.05131655474144227 -0.04444135796132464 4.372379593529996 0 1 0
13 2 8.187491058345111 6.90504766444997 2.825213914736575 0 0 0
14 3 8.18681396636357 6.9032513572768925 5.9441211799345455 0 0 0
15 1 3.12434473891826 1.0493062513571274 4.381225614495786 0 1 0
16 1 6.286717941992223 2.1588881866267897 4.381225614826826 0 1 0
17 1 9.45836050010171 3.248535522246586 4.382996293437488 -1 0 0
18 1 3.7446052001380448 4.342792745398271 4.381225614195699 0 0 0
19 2 7.55700231837227 3.6158308015009144 2.825213914940354 0 0 0
20 3 7.558896510937056 3.616142576037826 5.944121180924187 0 0 0
21 1 6.918724920410675 5.442070819612257 4.382996292569232 0 0 0
22 5 8.821761766233639 5.07843278565051 9.36898397349388 -1 0 0
23 6 8.821761766064343 5.078432785256796 12.489308850317837 -1 0 0
24 5 11.3594008389404 7.262834824007734 9.384728205135655 -1 0 0
25 6 11.353841677947395 7.270505464404059 12.491416322144081 -1 0 0
26 5 9.444689884780669 1.7885718669540032 9.3847282052834 -1 1 0
27 6 9.45411243473787 1.7895509222930746 12.491416322223918 -1 1 0
28 4 8.181144332589971 3.2526357684531386 10.932379818325144 -1 0 0
29 5 3.122357290973936 3.979285935240644 9.369484253166549 0 0 0
30 6 3.120463097395579 3.97959770999055 12.488391518393957 0 0 0
31 4 10.723257081175126 5.4365403268491415 10.93237981860469 -1 0 0
32 5 5.661194572953126 6.183891663892824 9.384728206999442 0 0 0
33 6 5.657331184540209 6.175241969276684 12.491416322515395 0 0 0
34 4 -0.051316600349262685 -0.04444138707044241 10.941225839603405 0 1 0
35 5 3.7502747342156955 0.6921771548373586 9.369484252877648 0 1 0
36 6 3.7509518266804585 0.6903808478630948 12.488391518259492 0 1 0
37 4 2.4821856917176635 2.1533576936756473 10.930609140208594 0 1 0
38 5 6.283035726532052 2.8795240073411654 9.369484252192997 0 0 0
39 6 6.284252827461536 2.881008538966969 12.488391518186283 0 0 0
40 4 5.021821279723458 4.3468929913464525 10.93060914053972 0 0 0
41 4 7.560883881540792 6.546122262602915 10.932379818952057 0 0 0
42 4 5.651660776212752 1.050736413283034 10.930609139675017 0 1 0

Velocities

1 4.143703368299665e-09 6.720303834666282e-09 2.788300321656768e-09
2 5.947253421854811e-09 2.347248914864632e-09 -5.409148413461182e-09
3 3.75255768860558e-09 -6.9399385218123126e-09 2.788310555804957e-09
4 -9.362460391301773e-10 -6.315208333094704e-09 -5.4091584949874425e-09
5 4.704901195361581e-12 3.0140914577304642e-12 1.2510640430194637e-08
6 4.615573703698476e-12 3.021290704137343e-12 8.0180699335301e-09
7 1.2491238274296237e-09 -3.0800864886650014e-09 1.6323054485925178e-09
8 -2.732010828623334e-09 -1.5044250424729691e-09 -3.3669026836805285e-09
9 1.0093790788812789e-09 -1.9191285694778004e-10 3.484803991506039e-09
10 -7.882078752403688e-09 2.2888862947992122e-10 2.7882259947777077e-09
11 -4.996561300048674e-09 3.977232397393839e-09 -5.409549631073576e-09
12 2.056389375966902e-12 1.353622539914357e-12 1.3244600556860823e-09
13 2.0525626304271657e-09 2.622362220038649e-09 1.6322809273360449e-09
14 2.67865944167695e-09 -1.6133047307604093e-09 -3.3669758794615205e-09
15 1.3824199331324537e-09 -2.3808836913443203e-10 7.097972775419949e-09
16 -4.808884018675722e-10 1.3164278495234971e-09 7.097997243018996e-09
17 -6.690309164005738e-10 -7.744266929112513e-10 3.4848417692330567e-09
18 -8.955144605983766e-10 -1.074464057845312e-09 7.0979401991305456e-09
19 -3.2876364441348702e-09 4.66749153267637e-10 1.6323124130146206e-09
20 6.72709067998961e-11 3.1267558982987864e-09 -3.3667798937028678e-09
21 -3.3427042005935267e-10 9.70260052317824e-10 3.4847627521220722e-09
22 -4.6517258077833624e-12 -2.9677666219881765e-12 -8.018068953958429e-09
23 -4.68136848383638e-12 -3.0507210914677903e-12 -1.251064175627023e-08
24 5.937546092050384e-09 -2.3472817536452385e-09 5.409133647501597e-09
25 4.134166837986615e-09 -6.720267495385164e-09 -2.788313799868832e-09
26 -5.006124777843162e-09 -3.977343009858124e-09 5.4091708445523975e-09
27 -7.891528922022586e-09 -2.288912367711956e-10 -2.7882937190625716e-09
28 -8.994968499200479e-10 1.074465853706267e-09 -7.097997053977407e-09
29 5.8096610431240834e-11 -3.1269260388926817e-09 3.366969230232846e-09
30 -3.2970373353127572e-09 -4.668715774105689e-10 -1.632281096915965e-09
31 -4.849016503309635e-10 -1.3164604131293264e-09 -7.097975118506856e-09
32 -9.458112254821074e-10 6.315260291958329e-09 5.40954932455787e-09
33 3.743101966516143e-09 6.940028824603688e-09 -2.78822526788538e-09
34 -2.07982629946608e-12 -1.3196099395798237e-12 -1.3244608131725775e-09
35 2.6691579149911697e-09 1.613302737030484e-09 3.3669150776409775e-09
36 2.043156299337411e-09 -2.6223045374287648e-09 -1.6323038613244639e-09
37 -3.383658115828145e-10 -9.703094695714e-10 -3.4847999763723946e-09
38 -2.741197126268935e-09 1.5046270685433504e-09 3.3667787844572588e-09
39 1.2398833159844012e-09 3.0800625397407595e-09 -1.632313304346047e-09
40 -6.730141861751101e-10 7.744049399498795e-10 -3.484765742398453e-09
41 1.3783949960242393e-09 2.381003202706316e-10 -7.097938539693409e-09
42 1.0053143133243449e-09 1.9197288792322386e-10 -3.484844158115121e-09
