LAMMPS data file via write_data, version 7 Jan 2022, timestep = 224

42 atoms
6 atom types

0 8.244221 xlo xhi
0 7.139705 ylo yhi
0 100 zlo zhi
4.12211 0 0 xy xz yz

Masses

1 95.94
2 32.066
3 32.066
4 95.94
5 32.066
6 32.066

Atoms # atomic

1 2 6.478527767098117 0.33696531535254826 4.100093658044809 -1 1 0
2 3 6.472268258044675 0.3352906556803187 7.219849078593481 -1 1 0
3 2 1.1746524296927854 1.3605499256062197 4.1000936641943575 0 1 0
4 3 1.1763318807342775 1.3668081217054437 7.2198491052974125 0 1 0
5 2 4.122073399170372 2.379854572864313 4.096007267950807 0 1 0
6 3 4.122073386643882 2.379854606373436 7.203719338956555 0 1 0
7 2 10.010153441426745 4.422485983846403 4.099177156423326 -1 0 0
8 3 10.015373623196707 4.426669079645092 7.21943666004903 -1 0 0
9 1 9.417795685164094 6.120800035600965 5.659576076192548 -1 0 0
10 2 4.713040039939768 5.442048468412591 4.100093657361201 0 0 0
11 3 4.717620095696836 5.437464913980467 7.219849075682777 0 0 0
12 1 12.366294065189011 7.139657866293403 5.661843590543904 -1 0 0
13 2 7.653283382374157 6.457766010033774 4.099177160213081 0 0 0
14 3 7.647050643253491 6.460195274374838 7.219436666425974 0 0 0
15 1 2.9413401273995383 1.0191931807773962 5.655587127612118 0 1 0
16 1 5.890807361908701 2.037640089678729 5.6555871144300305 0 1 0
17 1 8.83607634913231 3.062856392068797 5.659576080954383 -1 0 0
18 1 3.53407269563488 4.082730340306013 5.655587113627221 0 0 0
19 2 7.0691144055184845 3.3990167127898774 4.099177157563913 0 0 0
20 3 7.070126978483188 3.392404336170683 7.219436640293994 0 0 0
21 1 6.478679186357053 5.095612148778935 5.659576076387013 0 0 0
22 5 7.067816088357299 1.366806938502507 10.45921306376916 -1 1 0
23 6 7.0694955345152435 1.3605487219845986 13.578968485840031 -1 1 0
24 4 7.6522923357509 3.0628552648143637 12.019486066770567 -1 0 0
25 5 9.418241706293195 3.3924031573271374 10.459625482605427 -1 0 0
26 6 9.41925427073047 3.3990155046787742 13.57988498435651 -1 0 0
27 4 10.009689207681825 5.095611003242047 12.019486068097502 -1 0 0
28 5 3.526527288397941 5.437463687127063 10.45921307047756 0 0 0
29 6 3.531107344683003 5.44204725215108 13.578968487302015 0 0 0
30 4 12.366295037728374 7.139656714575233 12.017218553162309 -1 0 0
31 5 1.7718798102919389 0.33528946351192707 10.459213039280849 0 1 0
32 6 1.7656203255647185 0.3369641122662717 13.578968480368244 0 1 0
33 4 2.353340448645123 2.037638941634035 12.02347501680945 0 1 0
34 5 4.122074432232443 2.3798533300916485 10.475342805431055 0 1 0
35 6 4.122074402151149 2.379853349341984 13.583054876421171 0 1 0
36 4 4.710074827367631 4.082729168830394 12.023475031120034 0 0 0
37 5 6.472994876653246 4.426667886671452 10.459625504303794 0 0 0
38 6 6.478215077156225 4.422484782659983 13.579884987405583 0 0 0
39 4 7.0705725525157614 6.120798904516514 12.019486062708811 0 0 0
40 5 8.841317604056423 6.460194053770718 10.459625479425865 0 0 0
41 6 8.835084852305682 6.457764792979506 13.57988498714866 0 0 0
42 4 5.302807845522382 1.019192020062035 12.02347502747557 0 1 0

Velocities

1 -3.9973658813827355e-06 1.1844465589936507e-05 -0.0006457751552733527
2 1.9641292858044026e-05 1.835449860866497e-05 -0.0006289979081528327
3 1.2302201346477455e-05 -2.4772245012866923e-06 -0.0006457753885657704
4 6.120967510120252e-06 -2.6202850553126778e-05 -0.0006289989059381401
5 1.8489029873169486e-08 -2.1996928291879502e-08 -0.0006310915334709296
6 1.8994467179629633e-08 -2.3307314957136413e-08 -0.0005742674072255858
7 1.2994800880680373e-06 -8.750030899350115e-06 -0.0006419984380497305
8 -1.6875851363962734e-05 -2.4149199667902023e-05 -0.00062662294921275
9 1.4142721493234673e-05 -2.443035097810667e-06 -0.0006584849508523021
10 -8.250897512248551e-06 -9.432775714437406e-06 -0.0006457751355197535
11 -2.570825251399249e-05 7.783463041148184e-06 -0.0006289977654759276
12 1.8178301375026242e-08 -2.1921749726712217e-08 -0.0006681830476743464
13 6.9363188067019665e-06 5.451666176881539e-06 -0.0006419985841899245
14 2.935933710268355e-05 -2.58911559913978e-06 -0.0006266231955043117
15 1.175569329776966e-05 5.988976763571661e-07 -0.000645881553092072
16 -6.387791743150527e-06 9.83283150380529e-06 -0.0006458810468978726
17 -9.141431621550757e-06 -1.1042969805694196e-05 -0.0006584851057308509
18 -5.3129787356368615e-06 -1.0497922298569422e-05 -0.0006458810477085649
19 -8.181594591674404e-06 3.232923162134117e-06 -0.0006419984627750913
20 -1.2429886867678287e-05 2.667357934879674e-05 -0.0006266221376760745
21 -4.947753550816933e-06 1.3421131173492596e-05 -0.0006584849419432893
22 -6.121511358158822e-06 -2.616019077742139e-05 0.0006290299887772879
23 -1.2302394473288044e-05 -2.4337990165010303e-06 0.0006458076005151732
24 9.141145652161101e-06 -1.1000198732738641e-05 0.0006584299831946942
25 1.2429138606328611e-05 2.6715679701647994e-05 0.0006266551957058665
26 8.181088686131013e-06 3.2766854059989002e-06 0.0006420310659837396
27 4.947685501276229e-06 1.3464909946537035e-05 0.0006584299333309894
28 2.57081012301998e-05 7.827973945831639e-06 0.0006290297205738017
29 8.250710076932107e-06 -9.388624530424089e-06 0.0006458075271652412
30 -1.814113519953104e-08 2.1953019451144565e-08 0.0006681283166512036
31 -1.964025253116158e-05 1.839738856226135e-05 0.0006290309067329777
32 3.99737647267745e-06 1.1887653958077633e-05 0.000645807798413955
33 6.388688825976715e-06 9.876874965137474e-06 0.000645824888756484
34 -1.9347823073421933e-08 2.3013875570819434e-08 0.0005743020693278258
35 -1.8157538703103108e-08 2.2270842522942975e-08 0.0006311241790321735
36 5.313354151297503e-06 -1.0453998250692247e-05 0.0006458243167811985
37 1.6876582615907723e-05 -2.4105960449805903e-05 0.0006266543071511598
38 -1.2990460621319364e-06 -8.706585908264764e-06 0.0006420309212074765
39 -1.4142564953586132e-05 -2.399999663874357e-06 0.0006584301123808365
40 -2.935930657413292e-05 -2.544969693616516e-06 0.0006266553215462214
41 -6.936207592640731e-06 5.495372113842866e-06 0.0006420309493827443
42 -1.1756810636071002e-05 6.434449965134049e-07 0.0006458245079994936
