LAMMPS data file via write_data, version 18 Jun 2019, timestep = 155221

11164 atoms
1 atom types

-7.7839881307283776e-01 1.2915407781307496e+02 xlo xhi
-6.7411315099236824e-01 1.1185071315099191e+02 ylo yhi
0.0000000000000000e+00 1.8349999900000000e+02 zlo zhi
6.4966237807009136e+01 0.0000000000000000e+00 0.0000000000000000e+00 xy xz yz

Masses

1 12.011

Atoms # molecular

1 1 1 1.2773515180608638e+02 -6.4699707123246386e-01 1.4864080814766002e+01 -1 1 0
2 1 1 -4.4700634140532491e-02 5.4251261468304601e-01 1.4864080700339404e+01 0 1 0
3 1 1 1.9050273916356281e+02 1.0822916909937523e+02 1.4865773477448315e+01 -1 0 0
4 1 1 1.9265523741913819e+02 1.0941883870270213e+02 1.4864466580200135e+01 -1 0 0
5 1 1 1.9196847118264137e+02 1.1066165696050952e+02 1.4864334786089197e+01 -1 0 0
6 1 1 6.4875370685163375e+01 1.1060835682062182e+02 1.4864080629212404e+01 0 0 0
7 1 1 -7.7763085258261411e-01 -6.7365131584898685e-01 1.4863958339401789e+01 0 1 0
8 1 1 6.7027995025731741e+01 1.1179788311373993e+02 1.4864466384724427e+01 0 0 0
9 1 1 1.3749923342337658e+00 5.1587281100937366e-01 1.4864335258312433e+01 0 1 0
10 1 1 4.2143085959786122e+00 4.6275774662811087e-01 1.4865770917343889e+01 0 1 0
11 1 1 1.8830537978556529e+02 1.0457956470933229e+02 1.4871181429113673e+01 -1 0 0
12 1 1 1.9045706422269060e+02 1.0576998571576779e+02 1.4867776872313458e+01 -1 0 0
13 1 1 1.8977019075002545e+02 1.0701276917594731e+02 1.4867087465388552e+01 -1 0 0
14 1 1 6.2676796271848090e+01 1.0695982403441634e+02 1.4865771029707298e+01 0 0 0
15 1 1 1.9192242282928112e+02 1.0820260630132231e+02 1.4865166947324548e+01 -1 0 0
16 1 1 6.4829287858375594e+01 1.0814940484919147e+02 1.4864878753115246e+01 0 0 0
17 1 1 6.4142453461034265e+01 1.0939218654028737e+02 1.4864335276820240e+01 0 0 0
18 1 1 6.6981897549754592e+01 1.0933894025172251e+02 1.4864879134820683e+01 0 0 0
19 1 1 6.6295065980503423e+01 1.1058171696563709e+02 1.4864334495315582e+01 0 0 0
20 1 1 6.9134528234198314e+01 1.1052859974614067e+02 1.4865773044942015e+01 0 0 0
21 1 1 6.8447690474642982e+01 1.1177136327425396e+02 1.4865166691760599e+01 0 0 0
22 1 1 7.1287080928517497e+01 1.1171863585837374e+02 1.4867776590156188e+01 0 0 0
23 1 1 5.6339994988138731e+00 4.3655207749403291e-01 1.4867080641044854e+01 0 1 0
24 1 1 8.4731652586862385e+00 3.8459911561965343e-01 1.4871146228004070e+01 0 1 0
25 1 1 1.8611149335567939e+02 1.0092766506725749e+02 1.4880968122131655e+01 -1 0 0
26 1 1 1.8826128576313923e+02 1.0211972709915109e+02 1.4875373773650448e+01 -1 0 0
27 1 1 1.8757408346263577e+02 1.0336240926636515e+02 1.4873996419552407e+01 -1 0 0
28 1 1 6.0479680342305805e+01 1.0331062527037083e+02 1.4871146260480378e+01 0 0 0
29 1 1 1.8972501334401215e+02 1.0455330058023559e+02 1.4869804922980185e+01 -1 0 0
30 1 1 6.2631350424903680e+01 1.0450076716885515e+02 1.4868321345819874e+01 0 0 0
31 1 1 6.1944256001413436e+01 1.0574343850122686e+02 1.4867080751865274e+01 0 0 0
32 1 1 6.4783542111857983e+01 1.0569050548501880e+02 1.4866750600095425e+01 0 0 0
33 1 1 6.4096485347782377e+01 1.0693317532749515e+02 1.4865619171777819e+01 0 0 0
34 1 1 6.6936025296828277e+01 1.0688010715763953e+02 1.4866247944017292e+01 0 0 0
35 1 1 6.6248986905753497e+01 1.0812277089300292e+02 1.4865166109328902e+01 0 0 0
36 1 1 6.9088643836438408e+01 1.0806978429224662e+02 1.4866746980249635e+01 0 0 0
37 1 1 6.8401601893570259e+01 1.0931242989255813e+02 1.4865618174127597e+01 0 0 0
38 1 1 7.1241292117894147e+01 1.0925978029635006e+02 1.4868335930178940e+01 0 0 0
39 1 1 7.0554235672058851e+01 1.1050239421345137e+02 1.4867087008099588e+01 0 0 0
40 1 1 7.3393857930456960e+01 1.1045043304300435e+02 1.4871181007189124e+01 0 0 0
41 1 1 7.2706786597329511e+01 1.1169300385539889e+02 1.4869804669869009e+01 0 0 0
42 1 1 7.5546186685625159e+01 1.1164216551232501e+02 1.4875373626591935e+01 0 0 0
43 1 1 9.8928600666015516e+00 3.5985559995919070e-01 1.4873931348651773e+01 0 1 0
44 1 1 1.2731846249069655e+01 3.1060170838301937e-01 1.4880806594320219e+01 0 1 0
45 1 1 1.8392333002544314e+02 9.7272123018948804e+01 1.4893505030184652e+01 -1 0 0
46 1 1 1.8607027378516113e+02 9.8466644421067841e+01 1.4886752229064411e+01 -1 0 0
47 1 1 1.8538247734175530e+02 9.9709149230524389e+01 1.4884972657461661e+01 -1 0 0
48 1 1 5.8286255746160137e+01 9.9659498052394582e+01 1.4880806443427137e+01 0 0 0
49 1 1 1.8753102389094161e+02 1.0090198488939856e+02 1.4878843422020950e+01 -1 0 0
50 1 1 6.0436037574170285e+01 1.0085103830550273e+02 1.4875964434457783e+01 0 0 0
51 1 1 5.9748404302944429e+01 1.0209350531797476e+02 1.4873931321153393e+01 0 0 0
52 1 1 6.2586891738896036e+01 1.0204164565830409e+02 1.4872374461519756e+01 0 0 0
53 1 1 6.1899326756119287e+01 1.0328409885557399e+02 1.4870383303215720e+01 0 0 0
54 1 1 6.4738539319172588e+01 1.0323167904723343e+02 1.4870037104263771e+01 0 0 0
55 1 1 6.4051032703546483e+01 1.0447412458352245e+02 1.4868152391457960e+01 0 0 0
56 1 1 6.6890714284291519e+01 1.0442144419756566e+02 1.4868879004180624e+01 0 0 0
57 1 1 6.6203246616766691e+01 1.0566388036114209e+02 1.4867086243346806e+01 0 0 0
58 1 1 6.9043199013565825e+01 1.0561120362338778e+02 1.4868862112824864e+01 0 0 0
59 1 1 6.8355743182557802e+01 1.0685361920923557e+02 1.4867079068089565e+01 0 0 0
60 1 1 7.1195837928735671e+01 1.0680122614449949e+02 1.4870021026289843e+01 0 0 0
61 1 1 7.0508371499534476e+01 1.0804360503211466e+02 1.4868152353297376e+01 0 0 0
62 1 1 7.3348512260261231e+01 1.0799183623997550e+02 1.4872425221306647e+01 0 0 0
63 1 1 7.2661026788848531e+01 1.0923416361991761e+02 1.4870421460736251e+01 0 0 0
64 1 1 7.5501097448616122e+01 1.0918342528189386e+02 1.4876106925006551e+01 0 0 0
65 1 1 7.4813593617498654e+01 1.1042568970056081e+02 1.4873996046056693e+01 0 0 0
66 1 1 7.7653438805988074e+01 1.1037642182834037e+02 1.4880967869014071e+01 0 0 0
67 1 1 7.6965913298625310e+01 1.1161861145937172e+02 1.4878843335635812e+01 0 0 0
68 1 1 7.9805354815835472e+01 1.1157123528515534e+02 1.4886752252043676e+01 0 0 0
69 1 1 1.4151550932853073e+01 2.8850754052671157e-01 1.4884736728015220e+01 0 1 0
70 1 1 1.6990418247220756e+01 2.4337804660186269e-01 1.4893099934145294e+01 0 1 0
71 1 1 1.8174234033160630e+02 9.3612096987818902e+01 1.4906174720097939e+01 -1 0 0
72 1 1 1.8388592999825954e+02 9.4809568813272406e+01 1.4899542660766787e+01 -1 0 0
73 1 1 1.8319731893115514e+02 9.6051832787497077e+01 1.4897835204012740e+01 -1 0 0
74 1 1 5.6098751703502820e+01 9.6005078357452788e+01 1.4893099662758816e+01 0 0 0
75 1 1 1.8534271676197997e+02 9.7247312774442591e+01 1.4890991083863371e+01 -1 0 0
76 1 1 5.8245700697631214e+01 9.7198853338883524e+01 1.4887175018479535e+01 0 0 0
77 1 1 5.7557269105001268e+01 9.8441044904585553e+01 1.4884736527234924e+01 0 0 0
78 1 1 6.0394166750093788e+01 9.8391193249930822e+01 1.4882050976671719e+01 0 0 0
79 1 1 5.9705807172010083e+01 9.9633341485658676e+01 1.4879399989167400e+01 0 0 0
80 1 1 6.2543946909113224e+01 9.9582437548448951e+01 1.4877922874625030e+01 0 0 0
81 1 1 6.1855657324271455e+01 1.0082455130597752e+02 1.4875197348914085e+01 0 0 0
82 1 1 6.4694788238404357e+01 1.0077293152129801e+02 1.4874895478586165e+01 0 0 0
83 1 1 6.4006564934556536e+01 1.0201502155551631e+02 1.4872209302521057e+01 0 0 0
84 1 1 6.6846420264529556e+01 1.0196299909256554e+02 1.4873019259850086e+01 0 0 0
85 1 1 6.6158250682180494e+01 1.0320506951537180e+02 1.4870419885883981e+01 0 0 0
86 1 1 6.8998590046456528e+01 1.0315294004304609e+02 1.4872343597829412e+01 0 0 0
87 1 1 6.8310451516522406e+01 1.0439498492554786e+02 1.4869802759707623e+01 0 0 0
88 1 1 7.1151086724868620e+01 1.0434305977196772e+02 1.4872938657303978e+01 0 0 0
89 1 1 7.0462954501712815e+01 1.0558506593287647e+02 1.4870382247608738e+01 0 0 0
90 1 1 7.3303749202071330e+01 1.0553369676337378e+02 1.4874848625680185e+01 0 0 0
91 1 1 7.2615607915533744e+01 1.0677564944590678e+02 1.4872209977071947e+01 0 0 0
92 1 1 7.5456445788683638e+01 1.0672522929812783e+02 1.4878050111982674e+01 0 0 0
93 1 1 7.4768292733171378e+01 1.0796711742001175e+02 1.4875316668631696e+01 0 0 0
94 1 1 7.7609042384376110e+01 1.0791806536224640e+02 1.4882411514772532e+01 0 0 0
95 1 1 7.6920880424114216e+01 1.0915987983307134e+02 1.4879639465960812e+01 0 0 0
96 1 1 7.9761387188585047e+01 1.0911260369734346e+02 1.4887676511411922e+01 0 0 0
97 1 1 7.9073212467782056e+01 1.1035433356864705e+02 1.4884972462519602e+01 0 0 0
98 1 1 8.1913312459149836e+01 1.1030918833423594e+02 1.4893504933600331e+01 0 0 0
99 1 1 8.1225105490676626e+01 1.1155081847749408e+02 1.4890991146864279e+01 0 0 0
100 1 1 8.4064646752274513e+01 1.1150807646611477e+02 1.4899542780497363e+01 0 0 0
101 1 1 1.8410132070830002e+01 2.2476087058638228e-01 1.4897325227410873e+01 0 1 0
102 1 1 2.1248995365562227e+01 1.8459618424149926e-01 1.4905486375083987e+01 0 1 0
103 1 1 1.7956894133160665e+02 8.9947391545617066e+01 1.4917046184397398e+01 -1 0 0
104 1 1 1.8170914908426568e+02 9.1147928495043715e+01 1.4911372385298458e+01 -1 0 0
105 1 1 1.8101958827278949e+02 9.2389903160623746e+01 1.4910061030760975e+01 -1 0 0
106 1 1 5.3918555828448042e+01 9.2346433310858686e+01 1.4905486070243674e+01 0 0 0
107 1 1 1.8316156679986727e+02 9.3588374301142991e+01 1.4903678231852119e+01 -1 0 0
108 1 1 5.6062171346470464e+01 9.3542999247260781e+01 1.4899633183982809e+01 0 0 0
109 1 1 5.5372771623701468e+01 9.4784878810172273e+01 1.4897324939115183e+01 0 0 0
110 1 1 5.8207514301931738e+01 9.4737800260929774e+01 1.4894069493771548e+01 0 0 0
111 1 1 5.7518164981722983e+01 9.5979603726260308e+01 1.4891308470432167e+01 0 0 0
112 1 1 6.0354509979812768e+01 9.5931078813075857e+01 1.4889024557913217e+01 0 0 0
113 1 1 5.9665206751080284e+01 9.7172805144785301e+01 1.4885913134599688e+01 0 0 0
114 1 1 6.2503011876444717e+01 9.7123125059298815e+01 1.4884681397465684e+01 0 0 0
115 1 1 6.1813757580714878e+01 9.8364784361129509e+01 1.4881360396300039e+01 0 0 0
116 1 1 6.4652810702361919e+01 9.8314254785389153e+01 1.4881184623490817e+01 0 0 0
117 1 1 6.3963609614132963e+01 9.9555861917753603e+01 1.4877796425099765e+01 0 0 0
118 1 1 6.6803655710548625e+01 9.9504789910778584e+01 1.4878668569447951e+01 0 0 0
119 1 1 6.6114507546239466e+01 1.0074635625190690e+02 1.4875313987989660e+01 0 0 0
120 1 1 6.8955287235710401e+01 1.0069504914661303e+02 1.4877280909405787e+01 0 0 0
121 1 1 6.8266181790035617e+01 1.0193657758303631e+02 1.4873993707436268e+01 0 0 0
122 1 1 7.1107461585601456e+01 1.0188536465544833e+02 1.4877173247954513e+01 0 0 0
123 1 1 7.0418382284772093e+01 1.0312685020341100e+02 1.4873929914594443e+01 0 0 0
124 1 1 7.3259968560568694e+01 1.0307610089118438e+02 1.4878444975739161e+01 0 0 0
125 1 1 7.2570901883427780e+01 1.0431753378875314e+02 1.4875198137289910e+01 0 0 0
126 1 1 7.5412640796599320e+01 1.0426764415683910e+02 1.4881081188508507e+01 0 0 0
127 1 1 7.4723582490436399e+01 1.0550901647223255e+02 1.4877799855683380e+01 0 0 0
128 1 1 7.7565336693166856e+01 1.0546039401133238e+02 1.4884933342985274e+01 0 0 0
129 1 1 7.6876291173804361e+01 1.0670170118784446e+02 1.4881633346781612e+01 0 0 0
130 1 1 7.9717917755674847e+01 1.0665474215739179e+02 1.4889723092943949e+01 0 0 0
131 1 1 7.9028889438059565e+01 1.0789597799961668e+02 1.4886472004479247e+01 0 0 0
132 1 1 8.1870238251953097e+01 1.0785103213250400e+02 1.4895092300732431e+01 0 0 0
133 1 1 8.1181222088003992e+01 1.0909218682588273e+02 1.4891991734390578e+01 0 0 0
134 1 1 8.4022144632504620e+01 1.0904952995110396e+02 1.4900677597269034e+01 0 0 0
135 1 1 8.3333120325424062e+01 1.1029058965123379e+02 1.4897835142078343e+01 0 0 0
136 1 1 8.6173482471399083e+01 1.1025040946600920e+02 1.4906174711388628e+01 0 0 0
137 1 1 8.5484413797888266e+01 1.1149135704188474e+02 1.4903678365209077e+01 0 0 0
138 1 1 8.8324110359295858e+01 1.1145374967190882e+02 1.4911372538965260e+01 0 0 0
139 1 1 2.2668710318628161e+01 1.6973937423471031e-01 1.4909277713445382e+01 0 1 0
140 1 1 2.5507675873724697e+01 1.3471605240034168e-01 1.4916158190548330e+01 0 1 0
141 1 1 1.7740274187346213e+02 8.6278320774210812e+01 1.4925414212976557e+01 -1 0 0
142 1 1 1.7953986681022303e+02 8.7481751820241030e+01 1.4920965791807951e+01 -1 0 0
143 1 1 1.7884930433605754e+02 8.8723399333326185e+01 1.4920123459434036e+01 -1 0 0
144 1 1 5.1746017384102416e+01 8.8683247826663873e+01 1.4916157892107710e+01 0 0 0
145 1 1 1.8098801432089118e+02 8.9924867553248006e+01 1.4914842663872776e+01 -1 0 0
146 1 1 5.3886269429235902e+01 8.9882800958077809e+01 1.4911122591509439e+01 0 0 0
147 1 1 5.3195831758631847e+01 9.1124352596340415e+01 1.4909277412101595e+01 0 0 0
148 1 1 5.6028234239780744e+01 9.1080467210256018e+01 1.4906035644628551e+01 0 0 0
149 1 1 5.5337811675303705e+01 9.2321920742437015e+01 1.4903636801151713e+01 0 0 0
150 1 1 5.8171951377873164e+01 9.2276372047987294e+01 1.4901081114846427e+01 0 0 0
151 1 1 5.7481529971668934e+01 9.3517710000899243e+01 1.4898152013006548e+01 0 0 0
152 1 1 6.0317399433062135e+01 9.3470703033117061e+01 1.4896421372868449e+01 0 0 0
153 1 1 5.9626977037615134e+01 9.4711922076890573e+01 1.4893040876612197e+01 0 0 0
154 1 1 6.2464488974496838e+01 9.4663697688676137e+01 1.4892189927257199e+01 0 0 0
155 1 1 6.1774072372002820e+01 9.5904807401848316e+01 1.4888484647920153e+01 0 0 0
156 1 1 6.4613062813664740e+01 9.5855631468747575e+01 1.4888515003907616e+01 0 0 0
157 1 1 6.3922663978101014e+01 9.7096649331203949e+01 1.4884632304332081e+01 0 0 0
158 1 1 6.6762905948871676e+01 9.7046806890454590e+01 1.4885556951513728e+01 0 0 0
159 1 1 6.6072538799260755e+01 9.8287751048270650e+01 1.4881627541499373e+01 0 0 0
160 1 1 6.8913772861551593e+01 9.8237543832032713e+01 1.4883528196757149e+01 0 0 0
161 1 1 6.8223444759567698e+01 9.9478427389595410e+01 1.4879635740303744e+01 0 0 0
162 1 1 7.1065413690307608e+01 9.9428185732199253e+01 1.4882667384116044e+01 0 0 0
163 1 1 7.0375123199315212e+01 1.0066901490985235e+02 1.4878841870409767e+01 0 0 0
164 1 1 7.3217588069466004e+01 1.0061911557763341e+02 1.4883166628833427e+01 0 0 0
165 1 1 7.2527332444244777e+01 1.0185989063733111e+02 1.4879401581974586e+01 0 0 0
166 1 1 7.5370085102324765e+01 1.0181074039485389e+02 1.4885088924450022e+01 0 0 0
167 1 1 7.4679865358057810e+01 1.0305145930212231e+02 1.4881365256773867e+01 0 0 0
168 1 1 7.7522733070092869e+01 1.0300346514123649e+02 1.4888327208332312e+01 0 0 0
169 1 1 7.6832557110089354e+01 1.0424412998389816e+02 1.4884640832634224e+01 0 0 0
170 1 1 7.9675385565876269e+01 1.0419768206448434e+02 1.4892608594203052e+01 0 0 0
171 1 1 7.8985264178794665e+01 1.0543829521055885e+02 1.4888988355969007e+01 0 0 0
172 1 1 8.1827905313529257e+01 1.0539374088619782e+02 1.4897550241310126e+01 0 0 0
173 1 1 8.1137843377103351e+01 1.0663429857007567e+02 1.4894059506121918e+01 0 0 0
174 1 1 8.3980155274533161e+01 1.0659191494529817e+02 1.4902749072342862e+01 0 0 0
175 1 1 8.3290146291427078e+01 1.0783240837418228e+02 1.4899472729660729e+01 0 0 0
176 1 1 8.6131996156059955e+01 1.0779238930543124e+02 1.4907865477453846e+01 0 0 0
177 1 1 8.5442019096099841e+01 1.0903280584068676e+02 1.4904889325682445e+01 0 0 0
178 1 1 8.8283289779522335e+01 1.0899526065622535e+02 1.4912669935465894e+01 0 0 0
179 1 1 8.7593309376644115e+01 1.1023558499111611e+02 1.4910061036671456e+01 0 0 0
180 1 1 9.0433909588060033e+01 1.1020054403722943e+02 1.4917046220618667e+01 0 0 0
181 1 1 8.9743879559020669e+01 1.1144075935324008e+02 1.4914842819011721e+01 0 0 0
182 1 1 9.2583753226150208e+01 1.1140818502987767e+02 1.4920965959257302e+01 0 0 0
183 1 1 2.6927381764654122e+01 1.2344693113388439e-01 1.4919178564416796e+01 0 1 0
184 1 1 2.9766510383007642e+01 9.3251024866997434e-02 1.4924449976655939e+01 0 1 0
185 1 1 1.7524293994168571e+02 8.2605458305813130e+01 1.4931464651068424e+01 -1 0 0
186 1 1 1.7737741197528027e+02 8.3811462001621109e+01 1.4928116678409735e+01 -1 0 0
187 1 1 1.7668585714074521e+02 8.5052757874133391e+01 1.4927676161188966e+01 -1 0 0
188 1 1 4.9580689689397140e+01 8.5015721385115512e+01 1.4924449690134072e+01 0 0 0
189 1 1 1.7882168237531383e+02 8.6257000666110656e+01 1.4923606607019602e+01 -1 0 0
190 1 1 5.1717870778206681e+01 8.6218165741247560e+01 1.4920494563665081e+01 0 0 0
191 1 1 5.1026404899221639e+01 8.7459381099493086e+01 1.4919178274176110e+01 0 0 0
192 1 1 5.3856607981082419e+01 8.7418769598042942e+01 1.4916332877881837e+01 0 0 0
193 1 1 5.3165120270829533e+01 8.8659879806683804e+01 1.4914486083668841e+01 0 0 0
194 1 1 5.5997008921680518e+01 8.8617559738913855e+01 1.4912084656823525e+01 0 0 0
195 1 1 5.5305472285510291e+01 8.9858532335680081e+01 1.4909675041166285e+01 0 0 0
196 1 1 5.8139145489365781e+01 8.9814620468286293e+01 1.4907875545637081e+01 0 0 0
197 1 1 5.7447545895449537e+01 9.1055434644271557e+01 1.4904909195044111e+01 0 0 0
198 1 1 6.0283040183478903e+01 9.1010089722000629e+01 1.4903805722092278e+01 0 0 0
199 1 1 5.9591376287514848e+01 9.2250738882310671e+01 1.4900338242385500e+01 0 0 0
200 1 1 6.2428655506866377e+01 9.2204153153918668e+01 1.4899946767482875e+01 0 0 0
201 1 1 6.1736936644128875e+01 9.3444644826956164e+01 1.4896082173768241e+01 0 0 0
202 1 1 6.4575887564560560e+01 9.3397040016433650e+01 1.4896376258159401e+01 0 0 0
203 1 1 6.3884131936682024e+01 9.4637392412190664e+01 1.4892249236906064e+01 0 0 0
204 1 1 6.6724565462353027e+01 9.4589020510498642e+01 1.4893230016236991e+01 0 0 0
205 1 1 6.6032800465165593e+01 9.5829256726688058e+01 1.4888976863547388e+01 0 0 0
206 1 1 6.8874472414678308e+01 9.5780399459680424e+01 1.4890734516518254e+01 0 0 0
207 1 1 6.8182724204938722e+01 9.7020541876003875e+01 1.4886465214136205e+01 0 0 0
208 1 1 7.1025370302345777e+01 9.6971518070245978e+01 1.4889185416882569e+01 0 0 0
209 1 1 7.0333656390917326e+01 9.8211584707769546e+01 1.4884969652235162e+01 0 0 0
210 1 1 7.3177014467289766e+01 9.8162762810885624e+01 1.4888866031761172e+01 0 0 0
211 1 1 7.2485347783326517e+01 9.9402766733953840e+01 1.4884738321368278e+01 0 0 0
212 1 1 7.5329165205987209e+01 9.9354557821091277e+01 1.4889948053082589e+01 0 0 0
213 1 1 7.4637559099208488e+01 1.0059450668423085e+02 1.4885919445659050e+01 0 0 0
214 1 1 7.7481612628545960e+01 1.0054732454499235e+02 1.4892423436170725e+01 0 0 0
215 1 1 7.6790082478048078e+01 1.0178722711694242e+02 1.4888496144169418e+01 0 0 0
216 1 1 7.9634183997102042e+01 1.0174146309072489e+02 1.4896082380934212e+01 0 0 0
217 1 1 7.8942748491917143e+01 1.0298133167753682e+02 1.4892265870585605e+01 0 0 0
218 1 1 8.1786733926043226e+01 1.0293733407445457e+02 1.4900553036437842e+01 0 0 0
219 1 1 8.1095408454320449e+01 1.0417717705907872e+02 1.4896875588078430e+01 0 0 0
220 1 1 8.3939131116236325e+01 1.0413522817787945e+02 1.4905395664701880e+01 0 0 0
221 1 1 8.3247920129393236e+01 1.0537504338074673e+02 1.4901906496213011e+01 0 0 0
222 1 1 8.6091249141145255e+01 1.0533534296052082e+02 1.4910209824187911e+01 0 0 0
223 1 1 8.5400144766448648e+01 1.0657512229153234e+02 1.4906971497599933e+01 0 0 0
224 1 1 8.8242962986776178e+01 1.0653778733899104e+02 1.4914711131647302e+01 0 0 0
225 1 1 8.7551943780715320e+01 1.0777751906855916e+02 1.4911785368034190e+01 0 0 0
226 1 1 9.0394150061248894e+01 1.0774259230677897e+02 1.4918754818509495e+01 0 0 0
227 1 1 8.9703181702498171e+01 1.0898226232731328e+02 1.4916187467946582e+01 0 0 0
228 1 1 9.2544698285230027e+01 1.0894972371099895e+02 1.4922310848874027e+01 0 0 0
229 1 1 9.1853736405375898e+01 1.1018931645521920e+02 1.4920123503269938e+01 0 0 0
230 1 1 9.4694517408475306e+01 1.1015909620743790e+02 1.4925414283043121e+01 0 0 0
231 1 1 9.4003511026842034e+01 1.1139859484427922e+02 1.4923606773271317e+01 0 0 0
232 1 1 9.6843544464508113e+01 1.1137058962464127e+02 1.4928116852538725e+01 0 0 0
233 1 1 3.1186199910108812e+01 8.5149556801012993e-02 1.4926675160499387e+01 0 1 0
234 1 1 3.4025508684423919e+01 5.9231565576084555e-02 1.4930456611182596e+01 0 1 0
235 1 1 3.6172881855512799e+01 1.2745053239012747e+00 1.4932459604804002e+01 0 1 0
236 1 1 1.7308860352928588e+02 7.8929450140102830e+01 1.4935682932047923e+01 -1 0 0
237 1 1 1.7522087826627532e+02 8.0137641458123454e+01 1.4933167540325373e+01 -1 0 0
238 1 1 1.7452838375848833e+02 8.1378580610537171e+01 1.4933063306237830e+01 -1 0 0
239 1 1 4.7421728230130853e+01 8.1344330286163910e+01 1.4930456349555298e+01 0 0 0
240 1 1 1.7666177293043177e+02 8.2585264577667516e+01 1.4930009395121022e+01 -1 0 0
241 1 1 4.9556260281142116e+01 8.2549405942809514e+01 1.4927528447544482e+01 0 0 0
242 1 1 4.8863828686264554e+01 8.3790284984682643e+01 1.4926674885291309e+01 0 0 0
243 1 1 5.1692142421193253e+01 8.3752788527594703e+01 1.4924385311448512e+01 0 0 0
244 1 1 5.0999658831880367e+01 8.4993565295004643e+01 1.4923067480128076e+01 0 0 0
245 1 1 5.3829506164337303e+01 8.4954438413140082e+01 1.4921067442504190e+01 0 0 0
246 1 1 5.3136929802016923e+01 8.6195071278571533e+01 1.4919239155600451e+01 0 0 0
247 1 1 5.5968467166027551e+01 8.6154360756944428e+01 1.4917651994878140e+01 0 0 0
248 1 1 5.5275769735161909e+01 8.7394815494651198e+01 1.4915284836985567e+01 0 0 0
249 1 1 5.8109117441759636e+01 8.7352607143668479e+01 1.4914223636620836e+01 0 0 0
250 1 1 5.7416283945961879e+01 8.8592860045948100e+01 1.4911317136445524e+01 0 0 0
251 1 1 6.0251512002967701e+01 8.8549273085337063e+01 1.4910837743952861e+01 0 0 0
252 1 1 5.9558540712246788e+01 8.9789314079334545e+01 1.4907430542093955e+01 0 0 0
253 1 1 6.2395656431314329e+01 8.9744496303936430e+01 1.4907511977528987e+01 0 0 0
254 1 1 6.1702557760141630e+01 9.0984329895217257e+01 1.4903684885279834e+01 0 0 0
255 1 1 6.4541495912142693e+01 9.0938458434453310e+01 1.4904263440765238e+01 0 0 0
256 1 1 6.3848292278813545e+01 9.2178101813915745e+01 1.4900129065544267e+01 0 0 0
257 1 1 6.6688905681537776e+01 9.2131389369689003e+01 1.4901172913533461e+01 0 0 0
258 1 1 6.5995635697638633e+01 9.3370868236858655e+01 1.4896854933820151e+01 0 0 0
259 1 1 6.8837706221514807e+01 9.3323566090000256e+01 1.4898435512968732e+01 0 0 0
260 1 1 6.8144413109545013e+01 9.4562909711267068e+01 1.4894046696140750e+01 0 0 0
261 1 1 7.0987683877397274e+01 9.4515314632891503e+01 1.4896357478763244e+01 0 0 0
262 1 1 7.0294404538153572e+01 9.5754551332327239e+01 1.4891985984150717e+01 0 0 0
263 1 1 7.3138605325590675e+01 9.5707013851121872e+01 1.4895283734803625e+01 0 0 0
264 1 1 7.2445370571143201e+01 9.6946169291272369e+01 1.4890991499408933e+01 0 0 0
265 1 1 7.5290227585514799e+01 9.6899090011807758e+01 1.4895486979360664e+01 0 0 0
266 1 1 7.4597066445462488e+01 9.8138184680861045e+01 1.4891315358544686e+01 0 0 0
267 1 1 7.7442312762092797e+01 9.8091981249812875e+01 1.4897081361877499e+01 0 0 0
268 1 1 7.6749253295853549e+01 9.9331032438460539e+01 1.4893054778350770e+01 0 0 0
269 1 1 7.9594654454433098e+01 9.9286103299159791e+01 1.4899971537117432e+01 0 0 0
270 1 1 7.8901724342536653e+01 1.0052513070840699e+02 1.4896103552374406e+01 0 0 0
271 1 1 8.1747083234060710e+01 1.0048183013218666e+02 1.4903854843657692e+01 0 0 0
272 1 1 8.1054309319412027e+01 1.0172085498008985e+02 1.4900157476135607e+01 0 0 0
273 1 1 8.3899459872127451e+01 1.0167947297762625e+02 1.4908295841967545e+01 0 0 0
274 1 1 8.3206860319162189e+01 1.0291850815942398e+02 1.4904788266722708e+01 0 0 0
275 1 1 8.6051662612988835e+01 1.0287925508869333e+02 1.4912841945212598e+01 0 0 0
276 1 1 8.5359240914945161e+01 1.0411829908093215e+02 1.4909554591770821e+01 0 0 0
277 1 1 8.8203577000219425e+01 1.0408130065930325e+02 1.4917131161314527e+01 0 0 0
278 1 1 8.7511324134031426e+01 1.0532034561751216e+02 1.4914102886682072e+01 0 0 0
279 1 1 9.0355092324292485e+01 1.0528565281322282e+02 1.4920952351881882e+01 0 0 0
280 1 1 8.9662986701694777e+01 1.0652468740894999e+02 1.4918221216644575e+01 0 0 0
281 1 1 9.2506101058610867e+01 1.0649229126173071e+02 1.4924244626808310e+01 0 0 0
282 1 1 9.1814109415048875e+01 1.0773130192282957e+02 1.4921836210158018e+01 0 0 0
283 1 1 9.4656505036255311e+01 1.0770114809071282e+02 1.4927048246027175e+01 0 0 0
284 1 1 9.3964584887369782e+01 1.0894011973680691e+02 1.4924968651091785e+01 0 0 0
285 1 1 9.6806225711471086e+01 1.0891212143839276e+02 1.4929435945140934e+01 0 0 0
286 1 1 9.6114328348822937e+01 1.1015103746610238e+02 1.4927676234771253e+01 0 0 0
287 1 1 9.8955210182713344e+01 1.1012508457652909e+02 1.4931464738726172e+01 0 0 0
288 1 1 9.8263282077057298e+01 1.1136392691154700e+02 1.4930009560910985e+01 0 0 0
289 1 1 1.0110343286145127e+02 1.1133988734872807e+02 1.4933167696558122e+01 0 0 0
290 1 1 3.5445179070642773e+01 5.3810384916012088e-02 1.4932000944545534e+01 0 1 0
291 1 1 3.8284656369752305e+01 3.1534309397182048e-02 1.4934572094194181e+01 0 1 0
292 1 1 3.7592493314056057e+01 1.2701703075171538e+00 1.4933677815012121e+01 0 1 0
293 1 1 4.0431379011195666e+01 1.2494966364637583e+00 1.4935716922746066e+01 0 1 0
294 1 1 1.7093876923754547e+02 7.5250939144122455e+01 1.4938532151461004e+01 -1 0 0
295 1 1 1.7306929190607283e+02 7.6460914553634595e+01 1.4936591607499739e+01 -1 0 0
296 1 1 1.7237594520821719e+02 7.7701511035473175e+01 1.4936780400724885e+01 -1 0 0
297 1 1 4.5268167357967116e+01 7.7669648703500911e+01 1.4934571881518485e+01 0 0 0
298 1 1 1.7450735384771747e+02 7.8910250658822292e+01 1.4934466280203859e+01 -1 0 0
299 1 1 4.7400499185609405e+01 7.8877013600645427e+01 1.4932459272939996e+01 0 0 0
300 1 1 4.6707198026384475e+01 8.0117570302167124e+01 1.4932000703020373e+01 0 0 0
301 1 1 4.9533960578845495e+01 8.0082896231650025e+01 1.4930224049001659e+01 0 0 0
302 1 1 4.8840586896357095e+01 8.1323357974178307e+01 1.4929359503996112e+01 0 0 0
303 1 1 5.1668695704208019e+01 8.1287208752273372e+01 1.4927841316927601e+01 0 0 0
304 1 1 5.0975196667104910e+01 8.2527528777765852e+01 1.4926527545644781e+01 0 0 0
305 1 1 5.3804837195151144e+01 8.2489897714999984e+01 1.4925313443942644e+01 0 0 0
306 1 1 5.3111170930301334e+01 8.3730034343907860e+01 1.4923520041153168e+01 0 0 0
307 1 1 5.5942502568043722e+01 8.3690950794966653e+01 1.4922679645880281e+01 0 0 0
308 1 1 5.5248639784784750e+01 8.4930869232373283e+01 1.4920390695783965e+01 0 0 0
309 1 1 5.8081792748993720e+01 8.4890395078894656e+01 1.4919996737363631e+01 0 0 0
310 1 1 5.7387717274579785e+01 8.6130069797780152e+01 1.4917215582088394e+01 0 0 0
311 1 1 6.0222783661434548e+01 8.6088291813954640e+01 1.4917296348338690e+01 0 0 0
312 1 1 5.9528492651755272e+01 8.7327709738371524e+01 1.4914053655075826e+01 0 0 0
313 1 1 6.2365513308113520e+01 8.7284736918551374e+01 1.4914562885711501e+01 0 0 0
314 1 1 6.1671016951586175e+01 8.8523899213125233e+01 1.4910921086800665e+01 0 0 0
315 1 1 6.4509968203851187e+01 8.8479866582728789e+01 1.4911763309936608e+01 0 0 0
316 1 1 6.3815291009085684e+01 8.9718788135729895e+01 1.4907811181849253e+01 0 0 0
317 1 1 6.6656066867338680e+01 8.9673867041506455e+01 1.4908915648771092e+01 0 0 0
318 1 1 6.5961255629785001e+01 9.0912573877528288e+01 1.4904754435932041e+01 0 0 0
319 1 1 6.8803670126911044e+01 9.0866978965212240e+01 1.4906155720196908e+01 0 0 0
320 1 1 6.8108781703467486e+01 9.2105504292173720e+01 1.4901883790423955e+01 0 0 0
321 1 1 7.0952596923684936e+01 9.2059502130672371e+01 1.4903757495780463e+01 0 0 0
322 1 1 7.0257685208583212e+01 9.3297881860159563e+01 1.4899460663704701e+01 0 0 0
323 1 1 7.3102635195494358e+01 9.3251798225615403e+01 1.4902082443941463e+01 0 0 0
324 1 1 7.2407749207803931e+01 9.4490068238374462e+01 1.4897832475871981e+01 0 0 0
325 1 1 7.5253554516590270e+01 9.4444283130438038e+01 1.4901474448688520e+01 0 0 0
326 1 1 7.4558739175665309e+01 9.5682477369983133e+01 1.4897330914652105e+01 0 0 0
327 1 1 7.7405112189002665e+01 9.5637400763765584e+01 1.4902157194287637e+01 0 0 0
328 1 1 7.6710411033885833e+01 9.6875547211649064e+01 1.4898166990728287e+01 0 0 0
329 1 1 7.9557075170434175e+01 9.6831582375386844e+01 1.4904168063174124e+01 0 0 0
330 1 1 7.8862528302257360e+01 9.8069708754252389e+01 1.4900363024467023e+01 0 0 0
331 1 1 8.1709243542893162e+01 9.8027220805827710e+01 1.4907322498277528e+01 0 0 0
332 1 1 8.1014887804363426e+01 9.9265356147156140e+01 1.4903719770146484e+01 0 0 0
333 1 1 8.3861455449901399e+01 9.9224646849216612e+01 1.4911247990918783e+01 0 0 0
334 1 1 8.3167323025546779e+01 1.0046281924392744e+02 1.4907855223970490e+01 0 0 0
335 1 1 8.6013581777928948e+01 1.0042411217965864e+02 1.4915482970444343e+01 0 0 0
336 1 1 8.5319692057453139e+01 1.0166233730290287e+02 1.4912306198577424e+01 0 0 0
337 1 1 8.8165512775434252e+01 1.0162577210544218e+02 1.4919598814109563e+01 0 0 0
338 1 1 8.7471868019702981e+01 1.0286404818681085e+02 1.4916648811549257e+01 0 0 0
339 1 1 9.0317146866589027e+01 1.0282968586121478e+02 1.4923296283743106e+01 0 0 0
340 1 1 8.9623737147298073e+01 1.0406800477269360e+02 1.4920589502022198e+01 0 0 0
341 1 1 9.2468387541604827e+01 1.0403584427382425e+02 1.4926444630367227e+01 0 0 0
342 1 1 9.1775191403305669e+01 1.0527419457860749e+02 1.4923997587956428e+01 0 0 0
343 1 1 9.4619141651155971e+01 1.0524419082389362e+02 1.4929057794851611e+01 0 0 0
344 1 1 9.3926127165316558e+01 1.0648255899996802e+02 1.4926878002782459e+01 0 0 0
345 1 1 9.6769324084587254e+01 1.0645463806688461e+02 1.4931223507809662e+01 0 0 0
346 1 1 9.6076451054208235e+01 1.0769300918115793e+02 1.4929304938606652e+01 0 0 0
347 1 1 9.8918867852968930e+01 1.0766707655000397e+02 1.4933023924594979e+01 0 0 0
348 1 1 9.8226089780644074e+01 1.0890543400517946e+02 1.4931351905096189e+01 0 0 0
349 1 1 1.0106773054011470e+02 1.0888137439783215e+02 1.4934502835074602e+01 0 0 0
350 1 1 1.0037499549535032e+02 1.1011969978244285e+02 1.4933063386301189e+01 0 0 0
351 1 1 1.0321589448017261e+02 1.1009737899747124e+02 1.4935683004050949e+01 0 0 0
352 1 1 1.0252314665631093e+02 1.1133565260934944e+02 1.4934466417475518e+01 0 0 0
353 1 1 1.0536336460506233e+02 1.1131492270308345e+02 1.4936591720010851e+01 0 0 0
354 1 1 3.9704308389004417e+01 2.8297814875894667e-02 1.4935592169390226e+01 0 1 0
355 1 1 4.2543927519370733e+01 9.0033900032117087e-03 1.4937275968763638e+01 0 1 0
356 1 1 4.1850980179241134e+01 1.2471117686639177e+00 1.4936489443402373e+01 0 1 0
357 1 1 4.4690098801051604e+01 1.2290953644966036e+00 1.4937805611847770e+01 0 1 0