LAMMPS data file via write_data, version 18 Jun 2019, timestep = 354

28 atoms
1 atom types

-3.8904595809679088e-02 6.4680285958096775e+00 xlo xhi
-3.3692376112949472e-02 5.6014783761129516e+00 ylo yhi
0.0000000000000000e+00 1.8349999900000000e+02 zlo zhi
3.2534665958096798e+00 0.0000000000000000e+00 0.0000000000000000e+00 xy xz yz

Masses

1 12.011

Atoms # molecular

1 1 1 5.0737720130146151e+00 2.3501663476212006e-01 1.4918800793109900e+01 -1 1 0
2 1 1 8.9094548640957905e-01 1.0394977212570893e+00 1.4918800789873076e+01 0 1 0
3 1 1 3.2145923812867410e+00 1.8447354686062538e+00 1.4921502054704987e+01 0 1 0
4 1 1 7.8622439223324685e+00 3.4550329310925023e+00 1.4920415673766636e+01 -1 0 0
5 1 1 7.3974746814622661e+00 4.7968463081830546e+00 1.4920322799951821e+01 -1 0 0
6 1 1 3.6790596448653261e+00 4.2596920506261711e+00 1.4918800788895449e+01 0 0 0
7 1 1 -3.8874098914569444e-02 -3.3654855452778167e-02 1.4917624318084222e+01 0 1 0
8 1 1 6.0031416156900512e+00 5.0645719715941135e+00 1.4920415675703705e+01 0 0 0
9 1 1 2.2851854744801963e+00 7.7112547868750481e-01 1.4920198464936473e+01 0 1 0
10 1 1 4.6090692522707357e+00 1.5766500737216498e+00 1.4920198465592954e+01 0 1 0
11 1 1 6.9332204537476247e+00 2.3813676167992552e+00 1.4920322796973501e+01 -1 0 0
12 1 1 2.7495227632267927e+00 3.1864306316744027e+00 1.4920198462767043e+01 0 0 0
13 1 1 5.5387913950704473e+00 2.6497722531369283e+00 1.4920415674347934e+01 0 0 0
14 1 1 5.0734821414826508e+00 3.9911630103267606e+00 1.4920322795943116e+01 0 0 0
15 2 1 6.4680589696299347e+00 3.7231250656264567e+00 1.8428525945258691e+01 -1 0 0
16 2 1 8.3272386013501247e+00 5.3328438992662477e+00 1.8431227206591615e+01 -1 0 0
17 2 1 6.9325262332602389e+00 1.3081684835467078e+00 1.8431227211244732e+01 -1 1 0
18 2 1 6.0029893516568418e+00 2.3814299025336987e+00 1.8429829537241865e+01 -1 0 0
19 2 1 2.2853247918175907e+00 2.9180882809363267e+00 1.8429612325617526e+01 0 0 0
20 2 1 7.8625358406350809e+00 3.9912104603249827e+00 1.8429829534164359e+01 -1 0 0
21 2 1 4.1444120746493542e+00 4.5283628128941986e+00 1.8431227210383554e+01 0 0 0
22 2 1 -3.8874106441330637e-02 -3.3655362569150991e-02 1.8432403681986521e+01 0 1 0
23 2 1 2.7496750124503215e+00 5.0328856254534782e-01 1.8429612324371242e+01 0 1 0
24 2 1 1.8200155382565009e+00 1.5766975237830949e+00 1.8429705204212684e+01 0 1 0
25 2 1 4.6087773191434867e+00 2.1128276030026285e+00 1.8429612326129082e+01 0 0 0
26 2 1 3.6797538504881344e+00 3.1864929172812340e+00 1.8429705203113890e+01 0 0 0
27 2 1 5.5386520627378442e+00 4.7967350554973542e+00 1.8429829535247912e+01 0 0 0
28 2 1 4.1440080782441697e+00 7.7101422588232915e-01 1.8429705199781981e+01 0 1 0

Velocities

1 1.4444668916070147e-10 2.7702352300674901e-10 4.2910962290785381e-10
2 -6.5319065989546189e-10 6.7628182380045755e-11 -3.2974774582742059e-11
3 2.8471632895944837e-10 -2.0820079392832511e-10 -9.1054905287804162e-11
4 4.3314414053942025e-10 1.4363978851287266e-11 3.0841258699284747e-11
5 9.2599283285833503e-11 2.5027861793693922e-10 4.4324529904038715e-10
6 2.1067941555222021e-10 -2.2789954550050701e-10 3.1219153082353246e-10
7 -8.5256579497740354e-11 -4.7581198599973575e-10 -6.0613454229504974e-10
8 -1.8024158007946752e-10 1.1450385140224442e-10 -1.2354518154818157e-10
9 -5.1055262694448001e-10 2.0834541874370187e-10 -2.9643169429142544e-11
10 2.0950828249458216e-10 -5.1042534906983658e-11 2.9140149091161556e-10
11 -2.4368586604955173e-10 4.1484320821983713e-10 2.2725753287066501e-11
12 5.5432224650611896e-10 -2.4876946488116843e-10 2.6018279993706876e-10
13 -2.4767882761891602e-10 4.9187320908995093e-11 -8.3276323349672522e-11
14 -1.9375723775118302e-11 -1.9335379023607726e-10 6.6812181410035380e-11
15 4.8067301897355618e-11 -3.3096273446879588e-10 1.4085244753316139e-10
16 2.8250104529311554e-10 5.9793600270830975e-10 -4.7001115673379331e-11
17 -3.2842664707014192e-10 8.9001407321227708e-12 -5.1329523799534698e-10
18 -6.4232615951118594e-11 -2.2931456721438494e-10 -3.4475731262797402e-10
19 -1.5239640647330030e-11 2.2102408645971457e-10 2.0502767255664994e-10
20 5.6494314375281704e-11 5.5759887954089500e-10 7.3695591121110379e-11
21 1.1104878156032282e-10 -3.0192074003086150e-10 -2.9106060492710293e-10
22 4.5198036266073679e-10 -1.5726256942034068e-10 5.0063387001466377e-10
23 -2.3595126948824390e-10 -3.4901752743814922e-10 2.3422479124543953e-11
24 -2.3309689737957639e-10 4.2652247100927881e-11 -4.0945414388477093e-10
25 7.8455315855095124e-11 2.2146722540180139e-10 4.2383853026570639e-11
26 1.5106841778469241e-10 -7.0092746199871660e-11 -1.6357989615396528e-11
27 -6.0602362544754135e-11 -6.1314127041866163e-10 -1.7535545011759706e-10
28 -2.3150003167571885e-10 4.1103879710649941e-10 -7.8615064950867110e-11
