LAMMPS (7 Jan 2022)
# deform by tension
#1 general
units           metal
dimension       3
atom_style      molecular
neighbor        0.3 bin

#2 structure
boundary        p p p
box tilt        large
read_data       /home/mshinjan/Phonons/MoirePhonons/Force_Constant_Generation/Examples/tblg_21.8/lammps.dat
Reading data file ...
  triclinic box = (-0.038904596 -0.033692376 0) to (6.4680286 5.6014784 183.5) with tilt (3.2534666 0 0)
WARNING: Triclinic box skew is large (../domain.cpp:219)
  1 by 1 by 1 MPI processor grid
  reading atoms ...
  28 atoms
  reading velocities ...
  28 velocities
Finding 1-2 1-3 1-4 neighbors ...
  special bond factors lj:    0        0        0       
  special bond factors coul:  0        0        0       
     0 = max # of 1-2 neighbors
     0 = max # of 1-3 neighbors
     0 = max # of 1-4 neighbors
     1 = max # of special neighbors
  special bonds CPU = 0.000 seconds
  read_data CPU = 0.002 seconds

#4 potentials
pair_style      hybrid/overlay drip rebo

# SW for layer 1
pair_coeff   * *  drip /home/mshinjan/Phonons/MoirePhonons/Force_Constant_Generation/Examples/tblg_21.8/C.drip   C
Reading drip potential file /home/mshinjan/Phonons/MoirePhonons/Force_Constant_Generation/Examples/tblg_21.8/C.drip with DATE: 2019-04-19
pair_coeff   * *  rebo /home/mshinjan/Phonons/MoirePhonons/Force_Constant_Generation/Examples/tblg_21.8/CH.rebo  C
Reading rebo potential file /home/mshinjan/Phonons/MoirePhonons/Force_Constant_Generation/Examples/tblg_21.8/CH.rebo with DATE: 2018-7-3
run 0
WARNING: No fixes with time integration, atoms won't move (../verlet.cpp:60)
Neighbor list info ...
  update every 1 steps, delay 10 steps, check yes
  max neighbors/atom: 2000, page size: 100000
  master list distance cutoff = 16
  ghost atom cutoff = 16
  binsize = 8, bins = 2 1 23
  2 neighbor lists, perpetual/occasional/extra = 2 0 0
  (1) pair drip, perpetual
      attributes: full, newton on, ghost
      pair build: full/bin/ghost
      stencil: full/ghost/bin/3d
      bin: standard
  (2) pair rebo, perpetual, copy from (1)
      attributes: full, newton on, ghost
      pair build: copy
      stencil: none
      bin: none
Per MPI rank memory allocation (min/avg/max) = 7.219 | 7.219 | 7.219 Mbytes
Step Temp E_pair E_mol TotEng Press 
       0 1.1948588e-18   -207.66002            0   -207.66002 -6.2864348e-07 
Loop time of 6.54e-07 on 1 procs for 0 steps with 28 atoms

152.9% CPU use with 1 MPI tasks x no OpenMP threads

MPI task timing breakdown:
Section |  min time  |  avg time  |  max time  |%varavg| %total
---------------------------------------------------------------
Pair    | 0          | 0          | 0          |   0.0 |  0.00
Bond    | 0          | 0          | 0          |   0.0 |  0.00
Neigh   | 0          | 0          | 0          |   0.0 |  0.00
Comm    | 0          | 0          | 0          |   0.0 |  0.00
Output  | 0          | 0          | 0          |   0.0 |  0.00
Modify  | 0          | 0          | 0          |   0.0 |  0.00
Other   |            | 6.54e-07   |            |       |100.00

Nlocal:             28 ave          28 max          28 min
Histogram: 1 0 0 0 0 0 0 0 0 0
Nghost:           1823 ave        1823 max        1823 min
Histogram: 1 0 0 0 0 0 0 0 0 0
Neighs:              0 ave           0 max           0 min
Histogram: 1 0 0 0 0 0 0 0 0 0
FullNghs:        16574 ave       16574 max       16574 min
Histogram: 1 0 0 0 0 0 0 0 0 0

Total # of neighbors = 16574
Ave neighs/atom = 591.92857
Ave special neighs/atom = 0
Neighbor list builds = 0
Dangerous builds = 0
set atom 1 x 5.080418698258745 y 0.36598288666088297 z 14.782632348949871
Setting atom values ...
  1 settings made for x
  1 settings made for y
  1 settings made for z
set atom 2 x 0.8975922771644279 y 1.1704640692319677 z 14.782630665678019
Setting atom values ...
  1 settings made for x
  1 settings made for y
  1 settings made for z
set atom 3 x 3.2212391868942656 y 1.975701582616332 z 14.785332646065642
Setting atom values ...
  1 settings made for x
  1 settings made for y
  1 settings made for z
set atom 4 x 7.8688908541207265 y 3.5859991052975397 z 14.784246621326638
Setting atom values ...
  1 settings made for x
  1 settings made for y
  1 settings made for z
set atom 5 x 7.404121441804492 y 4.927812409488691 z 14.78415441457152
Setting atom values ...
  1 settings made for x
  1 settings made for y
  1 settings made for z
set atom 6 x 3.6857063197642588 y 4.390658443780988 z 14.78263114092838
Setting atom values ...
  1 settings made for x
  1 settings made for y
  1 settings made for z
set atom 7 x -0.032227386141509856 y 0.09731155633152125 z 14.78145491638658
Setting atom values ...
  1 settings made for x
  1 settings made for y
  1 settings made for z
set atom 8 x 6.009788327533325 y 5.195538038539246 z 14.784245925121724
Setting atom values ...
  1 settings made for x
  1 settings made for y
  1 settings made for z
set atom 9 x 2.291832271795473 y 0.9020915999380479 z 14.784028472228876
Setting atom values ...
  1 settings made for x
  1 settings made for y
  1 settings made for z
set atom 10 x 4.615715985985235 y 1.70761630770587 z 14.784029440460463
Setting atom values ...
  1 settings made for x
  1 settings made for y
  1 settings made for z
set atom 11 x 6.939867273271789 y 2.512333899158418 z 14.784153037198232
Setting atom values ...
  1 settings made for x
  1 settings made for y
  1 settings made for z
set atom 12 x 2.7561696610248023 y 3.3173968639264944 z 14.784029243562058
Setting atom values ...
  1 settings made for x
  1 settings made for y
  1 settings made for z
set atom 13 x 5.545438140607601 y 2.780738533664843 z 14.78424624630232
Setting atom values ...
  1 settings made for x
  1 settings made for y
  1 settings made for z
set atom 14 x 5.0801287864760205 y 4.122129230579361 z 14.784152707718036
Setting atom values ...
  1 settings made for x
  1 settings made for y
  1 settings made for z
set atom 15 x 6.474828735459297 y 3.8539003169472674 z 18.292356371069726
Setting atom values ...
  1 settings made for x
  1 settings made for y
  1 settings made for z
set atom 16 x 8.33400857500892 y 5.463619029352351 z 18.295056969223204
Setting atom values ...
  1 settings made for x
  1 settings made for y
  1 settings made for z
set atom 17 x 6.939296100029921 y 1.4389435727814912 z 18.295058608960822
Setting atom values ...
  1 settings made for x
  1 settings made for y
  1 settings made for z
set atom 18 x 6.009759215286865 y 2.512205031026159 z 18.293660388232695
Setting atom values ...
  1 settings made for x
  1 settings made for y
  1 settings made for z
set atom 19 x 2.29209449859249 y 3.048863508788464 z 18.293442382888546
Setting atom values ...
  1 settings made for x
  1 settings made for y
  1 settings made for z
set atom 20 x 7.869305602659427 y 4.121985724709595 z 18.293659370765784
Setting atom values ...
  1 settings made for x
  1 settings made for y
  1 settings made for z
set atom 21 x 4.151182029399788 y 4.659137840333495 z 18.295057306142102
Setting atom values ...
  1 settings made for x
  1 settings made for y
  1 settings made for z
set atom 22 x -0.03210412122146943 y 0.09711968743016397 z 18.296234102293884
Setting atom values ...
  1 settings made for x
  1 settings made for y
  1 settings made for z
set atom 23 x 2.7564449105193756 y 0.6340639047170753 z 18.29344311077287
Setting atom values ...
  1 settings made for x
  1 settings made for y
  1 settings made for z
set atom 24 x 1.8267853058316934 y 1.7074727645361225 z 18.29353664578217
Setting atom values ...
  1 settings made for x
  1 settings made for y
  1 settings made for z
set atom 25 x 4.6155472219334985 y 2.2436027167609565 z 18.293442761730482
Setting atom values ...
  1 settings made for x
  1 settings made for y
  1 settings made for z
set atom 26 x 3.68652365829855 y 3.317267992491368 z 18.293534868063116
Setting atom values ...
  1 settings made for x
  1 settings made for y
  1 settings made for z
set atom 27 x 5.54542198909493 y 4.927510333915645 z 18.293660122876958
Setting atom values ...
  1 settings made for x
  1 settings made for y
  1 settings made for z
set atom 28 x 4.150778010919434 y 0.9017894129554941 z 18.293535359860652
Setting atom values ...
  1 settings made for x
  1 settings made for y
  1 settings made for z
run 0
WARNING: No fixes with time integration, atoms won't move (../verlet.cpp:60)
Per MPI rank memory allocation (min/avg/max) = 7.219 | 7.219 | 7.219 Mbytes
Step Temp E_pair E_mol TotEng Press 
       0 1.1948588e-18   -207.66002            0   -207.66002 8.845275e-05 
Loop time of 5.37e-07 on 1 procs for 0 steps with 28 atoms

186.2% CPU use with 1 MPI tasks x no OpenMP threads

MPI task timing breakdown:
Section |  min time  |  avg time  |  max time  |%varavg| %total
---------------------------------------------------------------
Pair    | 0          | 0          | 0          |   0.0 |  0.00
Bond    | 0          | 0          | 0          |   0.0 |  0.00
Neigh   | 0          | 0          | 0          |   0.0 |  0.00
Comm    | 0          | 0          | 0          |   0.0 |  0.00
Output  | 0          | 0          | 0          |   0.0 |  0.00
Modify  | 0          | 0          | 0          |   0.0 |  0.00
Other   |            | 5.37e-07   |            |       |100.00

Nlocal:             28 ave          28 max          28 min
Histogram: 1 0 0 0 0 0 0 0 0 0
Nghost:           1844 ave        1844 max        1844 min
Histogram: 1 0 0 0 0 0 0 0 0 0
Neighs:              0 ave           0 max           0 min
Histogram: 1 0 0 0 0 0 0 0 0 0
FullNghs:        16574 ave       16574 max       16574 min
Histogram: 1 0 0 0 0 0 0 0 0 0

Total # of neighbors = 16574
Ave neighs/atom = 591.92857
Ave special neighs/atom = 0
Neighbor list builds = 0
Dangerous builds = 0
set atom 1 x 5.080661082948801 y 0.3711084086959009 z 15.049844075364055
Setting atom values ...
  1 settings made for x
  1 settings made for y
  1 settings made for z
set atom 2 x 0.8978346661078578 y 1.1755895958928542 z 15.049842265397743
Setting atom values ...
  1 settings made for x
  1 settings made for y
  1 settings made for z
set atom 3 x 3.2214815764905143 y 1.9808270988822245 z 15.052544307016088
Setting atom values ...
  1 settings made for x
  1 settings made for y
  1 settings made for z
set atom 4 x 7.869133249462105 y 3.5911246240436707 z 15.05145830707309
Setting atom values ...
  1 settings made for x
  1 settings made for y
  1 settings made for z
set atom 5 x 7.40436382989487 y 4.932937925015885 z 15.05136616322258
Setting atom values ...
  1 settings made for x
  1 settings made for y
  1 settings made for z
set atom 6 x 3.6859487042584123 y 4.395783972204712 z 15.049842778818352
Setting atom values ...
  1 settings made for x
  1 settings made for y
  1 settings made for z
set atom 7 x -0.03198500025559747 y 0.1024370854779344 z 15.04866656385287
Setting atom values ...
  1 settings made for x
  1 settings made for y
  1 settings made for z
set atom 8 x 6.010030713514671 y 5.200663552954486 z 15.051457574261832
Setting atom values ...
  1 settings made for x
  1 settings made for y
  1 settings made for z
set atom 9 x 2.292074661068831 y 0.9072171166589216 z 15.051240090004008
Setting atom values ...
  1 settings made for x
  1 settings made for y
  1 settings made for z
set atom 10 x 4.615958372409862 y 1.7127418289154397 z 15.051241157397131
Setting atom values ...
  1 settings made for x
  1 settings made for y
  1 settings made for z
set atom 11 x 6.940109663177625 y 2.51745942277815 z 15.05136466692716
Setting atom values ...
  1 settings made for x
  1 settings made for y
  1 settings made for z
set atom 12 x 2.7564120549783366 y 3.3225223853579315 z 15.051240913431752
Setting atom values ...
  1 settings made for x
  1 settings made for y
  1 settings made for z
set atom 13 x 5.545680527356655 y 2.7858640570686384 z 15.051457904290507
Setting atom values ...
  1 settings made for x
  1 settings made for y
  1 settings made for z
set atom 14 x 5.080371169552486 y 4.127254751673682 z 15.051364326828281
Setting atom values ...
  1 settings made for x
  1 settings made for y
  1 settings made for z
set atom 15 x 6.475076270194062 y 3.859017443429445 z 18.55956835629845
Setting atom values ...
  1 settings made for x
  1 settings made for y
  1 settings made for z
set atom 16 x 8.33425611849741 y 5.46873615080894 z 18.562268934353078
Setting atom values ...
  1 settings made for x
  1 settings made for y
  1 settings made for z
set atom 17 x 6.939543639407341 y 1.444060692021174 z 18.562270690099194
Setting atom values ...
  1 settings made for x
  1 settings made for y
  1 settings made for z
set atom 18 x 6.010006754709886 y 2.517322152167536 z 18.560872431354248
Setting atom values ...
  1 settings made for x
  1 settings made for y
  1 settings made for z
set atom 19 x 2.2923420305289417 y 3.0539806340500744 z 18.5606543692802
Setting atom values ...
  1 settings made for x
  1 settings made for y
  1 settings made for z
set atom 20 x 7.869553137034098 y 4.127102851787185 z 18.560871352732413
Setting atom values ...
  1 settings made for x
  1 settings made for y
  1 settings made for z
set atom 21 x 4.151429571929122 y 4.664254956822592 z 18.56226925761081
Setting atom values ...
  1 settings made for x
  1 settings made for y
  1 settings made for z
set atom 22 x -0.031856577155910185 y 0.10223680503944038 z 18.563446098417806
Setting atom values ...
  1 settings made for x
  1 settings made for y
  1 settings made for z
set atom 23 x 2.756692451059403 y 0.6391810348152298 z 18.560655073224094
Setting atom values ...
  1 settings made for x
  1 settings made for y
  1 settings made for z
set atom 24 x 1.8270328408427698 y 1.7125898900635892 z 18.560748687325667
Setting atom values ...
  1 settings made for x
  1 settings made for y
  1 settings made for z
set atom 25 x 4.615794762937153 y 2.248719837532726 z 18.560654765566678
Setting atom values ...
  1 settings made for x
  1 settings made for y
  1 settings made for z
set atom 26 x 3.686771194551764 y 3.3223851112059015 z 18.560746820503972
Setting atom values ...
  1 settings made for x
  1 settings made for y
  1 settings made for z
set atom 27 x 5.545669530499513 y 4.932627461350254 z 18.560872057928975
Setting atom values ...
  1 settings made for x
  1 settings made for y
  1 settings made for z
set atom 28 x 4.151025552958498 y 0.9069065370153616 z 18.56074734348636
Setting atom values ...
  1 settings made for x
  1 settings made for y
  1 settings made for z
run 0
WARNING: No fixes with time integration, atoms won't move (../verlet.cpp:60)
Per MPI rank memory allocation (min/avg/max) = 7.219 | 7.219 | 7.219 Mbytes
Step Temp E_pair E_mol TotEng Press 
       0 1.1948588e-18   -207.66002            0   -207.66002 -8.5806054e-05 
Loop time of 6.35e-07 on 1 procs for 0 steps with 28 atoms

157.5% CPU use with 1 MPI tasks x no OpenMP threads

MPI task timing breakdown:
Section |  min time  |  avg time  |  max time  |%varavg| %total
---------------------------------------------------------------
Pair    | 0          | 0          | 0          |   0.0 |  0.00
Bond    | 0          | 0          | 0          |   0.0 |  0.00
Neigh   | 0          | 0          | 0          |   0.0 |  0.00
Comm    | 0          | 0          | 0          |   0.0 |  0.00
Output  | 0          | 0          | 0          |   0.0 |  0.00
Modify  | 0          | 0          | 0          |   0.0 |  0.00
Other   |            | 6.35e-07   |            |       |100.00

Nlocal:             28 ave          28 max          28 min
Histogram: 1 0 0 0 0 0 0 0 0 0
Nghost:           1844 ave        1844 max        1844 min
Histogram: 1 0 0 0 0 0 0 0 0 0
Neighs:              0 ave           0 max           0 min
Histogram: 1 0 0 0 0 0 0 0 0 0
FullNghs:        16574 ave       16574 max       16574 min
Histogram: 1 0 0 0 0 0 0 0 0 0

Total # of neighbors = 16574
Ave neighs/atom = 591.92857
Ave special neighs/atom = 0
Neighbor list builds = 0
Dangerous builds = 0
set atom 1 x 4.885457884333383 y 0.24459909421057627 z 14.918786876543521
Setting atom values ...
  1 settings made for x
  1 settings made for y
  1 settings made for z
set atom 2 x 0.7026309623954613 y 1.0490802576518146 z 14.918792451646487
Setting atom values ...
  1 settings made for x
  1 settings made for y
  1 settings made for z
set atom 3 x 3.0262771995914344 y 1.854318208262882 z 14.921489901009647
Setting atom values ...
  1 settings made for x
  1 settings made for y
  1 settings made for z
set atom 4 x 7.673928649562507 y 3.464615819404482 z 14.920402082998454
Setting atom values ...
  1 settings made for x
  1 settings made for y
  1 settings made for z
set atom 5 x 7.209160126134688 y 4.806429188996747 z 14.92030742761867
Setting atom values ...
  1 settings made for x
  1 settings made for y
  1 settings made for z
set atom 6 x 3.4907452396579295 y 4.269274194932429 z 14.918786583341191
Setting atom values ...
  1 settings made for x
  1 settings made for y
  1 settings made for z
set atom 7 x -0.22718822559476265 y -0.0240726140009403 z 14.917612164705856
Setting atom values ...
  1 settings made for x
  1 settings made for y
  1 settings made for z
set atom 8 x 5.814827144597383 y 5.074154529330986 z 14.920403802065366
Setting atom values ...
  1 settings made for x
  1 settings made for y
  1 settings made for z
set atom 9 x 2.0968708523312496 y 0.7807081217428934 z 14.920188181406273
Setting atom values ...
  1 settings made for x
  1 settings made for y
  1 settings made for z
set atom 10 x 4.420754277625072 y 1.5862321963064645 z 14.920186501247318
Setting atom values ...
  1 settings made for x
  1 settings made for y
  1 settings made for z
set atom 11 x 6.744905353331624 y 2.390950215327018 z 14.920314299290498
Setting atom values ...
  1 settings made for x
  1 settings made for y
  1 settings made for z
set atom 12 x 2.561207497683262 y 3.196013291379335 z 14.920184249880316
Setting atom values ...
  1 settings made for x
  1 settings made for y
  1 settings made for z
set atom 13 x 5.350476253110218 y 2.659354296953342 z 14.920404678502887
Setting atom values ...
  1 settings made for x
  1 settings made for y
  1 settings made for z
set atom 14 x 4.885167542275868 y 4.000745251583973 z 14.920310205791912
Setting atom values ...
  1 settings made for x
  1 settings made for y
  1 settings made for z
set atom 15 x 6.278904955992581 y 3.732866621624136 z 18.42851379148725
Setting atom values ...
  1 settings made for x
  1 settings made for y
  1 settings made for z
set atom 16 x 8.13808352041752 y 5.3425853844510875 z 18.431214650070945
Setting atom values ...
  1 settings made for x
  1 settings made for y
  1 settings made for z
set atom 17 x 6.743371509400052 y 1.3179098121976196 z 18.431211970430752
Setting atom values ...
  1 settings made for x
  1 settings made for y
  1 settings made for z
set atom 18 x 5.813835283022873 y 2.391171570273841 z 18.429815112030017
Setting atom values ...
  1 settings made for x
  1 settings made for y
  1 settings made for z
set atom 19 x 2.096170873427778 y 2.9278293417932195 z 18.429601612214217
Setting atom values ...
  1 settings made for x
  1 settings made for y
  1 settings made for z
set atom 20 x 7.673381676937012 y 4.000951511609945 z 18.429818386172297
Setting atom values ...
  1 settings made for x
  1 settings made for y
  1 settings made for z
set atom 21 x 3.955257315948577 y 4.538104533892697 z 18.431218546594767
Setting atom values ...
  1 settings made for x
  1 settings made for y
  1 settings made for z
set atom 22 x -0.2280291879990317 y -0.023913895876791685 z 18.43239152827475
Setting atom values ...
  1 settings made for x
  1 settings made for y
  1 settings made for z
set atom 23 x 2.560520330452842 y 0.5130298603817506 z 18.429599883223105
Setting atom values ...
  1 settings made for x
  1 settings made for y
  1 settings made for z
set atom 24 x 1.630861129430807 y 1.5864387141077814 z 18.42969119355388
Setting atom values ...
  1 settings made for x
  1 settings made for y
  1 settings made for z
set atom 25 x 4.419623199566083 y 2.1225694580376557 z 18.42959901955228
Setting atom values ...
  1 settings made for x
  1 settings made for y
  1 settings made for z
set atom 26 x 3.4905997730151093 y 3.1962346244246205 z 18.429697039143726
Setting atom values ...
  1 settings made for x
  1 settings made for y
  1 settings made for z
set atom 27 x 5.349497417262421 y 4.806476514099478 z 18.429818647230718
Setting atom values ...
  1 settings made for x
  1 settings made for y
  1 settings made for z
set atom 28 x 3.954853395606383 y 0.7807559709953921 z 18.429690913377623
Setting atom values ...
  1 settings made for x
  1 settings made for y
  1 settings made for z
run 0
WARNING: No fixes with time integration, atoms won't move (../verlet.cpp:60)
Per MPI rank memory allocation (min/avg/max) = 7.219 | 7.219 | 7.219 Mbytes
Step Temp E_pair E_mol TotEng Press 
       0 1.1948588e-18   -207.66002            0   -207.66002 1.2426082e-06 
Loop time of 5.62e-07 on 1 procs for 0 steps with 28 atoms

177.9% CPU use with 1 MPI tasks x no OpenMP threads

MPI task timing breakdown:
Section |  min time  |  avg time  |  max time  |%varavg| %total
---------------------------------------------------------------
Pair    | 0          | 0          | 0          |   0.0 |  0.00
Bond    | 0          | 0          | 0          |   0.0 |  0.00
Neigh   | 0          | 0          | 0          |   0.0 |  0.00
Comm    | 0          | 0          | 0          |   0.0 |  0.00
Output  | 0          | 0          | 0          |   0.0 |  0.00
Modify  | 0          | 0          | 0          |   0.0 |  0.00
Other   |            | 5.62e-07   |            |       |100.00

Nlocal:             28 ave          28 max          28 min
Histogram: 1 0 0 0 0 0 0 0 0 0
Nghost:           1830 ave        1830 max        1830 min
Histogram: 1 0 0 0 0 0 0 0 0 0
Neighs:              0 ave           0 max           0 min
Histogram: 1 0 0 0 0 0 0 0 0 0
FullNghs:        16574 ave       16574 max       16574 min
Histogram: 1 0 0 0 0 0 0 0 0 0

Total # of neighbors = 16574
Ave neighs/atom = 591.92857
Ave special neighs/atom = 0
Neighbor list builds = 0
Dangerous builds = 0
set atom 1 x 4.8845268757955465 y 0.2221966951098333 z 14.919177886003899
Setting atom values ...
  1 settings made for x
  1 settings made for y
  1 settings made for z
set atom 2 x 0.7018632319928756 y 1.02659899822718 z 14.917186180764624
Setting atom values ...
  1 settings made for x
  1 settings made for y
  1 settings made for z
set atom 3 x 3.025826966658771 y 1.8318600323896626 z 14.921501933909282
Setting atom values ...
  1 settings made for x
  1 settings made for y
  1 settings made for z
set atom 4 x 7.673461094122764 y 3.4420409407328076 z 14.920974384527538
Setting atom values ...
  1 settings made for x
  1 settings made for y
  1 settings made for z
set atom 5 x 7.208410138295206 y 4.783885824869186 z 14.92143725608263
Setting atom values ...
  1 settings made for x
  1 settings made for y
  1 settings made for z
set atom 6 x 3.489964224274453 y 4.246973804071199 z 14.920037940944566
Setting atom values ...
  1 settings made for x
  1 settings made for y
  1 settings made for z
set atom 7 x -0.22811843209546484 y -0.0464292793859641 z 14.9176241964307
Setting atom values ...
  1 settings made for x
  1 settings made for y
  1 settings made for z
set atom 8 x 5.814066388766531 y 5.051795745151553 z 14.920462782127727
Setting atom values ...
  1 settings made for x
  1 settings made for y
  1 settings made for z
set atom 9 x 2.0961529638946046 y 0.7582903256039447 z 14.919542537841288
Setting atom values ...
  1 settings made for x
  1 settings made for y
  1 settings made for z
set atom 10 x 4.420222838419768 y 1.564012592472183 z 14.91986449084571
Setting atom values ...
  1 settings made for x
  1 settings made for y
  1 settings made for z
set atom 11 x 6.744426024914944 y 2.368463196770011 z 14.918578928081514
Setting atom values ...
  1 settings made for x
  1 settings made for y
  1 settings made for z
set atom 12 x 2.5607545272142493 y 3.173533195349311 z 14.921188001422003
Setting atom values ...
  1 settings made for x
  1 settings made for y
  1 settings made for z
set atom 13 x 5.350049224901386 y 2.6371413268737047 z 14.919809491266749
Setting atom values ...
  1 settings made for x
  1 settings made for y
  1 settings made for z
set atom 14 x 4.8845041266319145 y 3.978464458737144 z 14.920951842757448
Setting atom values ...
  1 settings made for x
  1 settings made for y
  1 settings made for z
set atom 15 x 6.656000147578139 y 3.735738357186499 z 18.42852582534955
Setting atom values ...
  1 settings made for x
  1 settings made for y
  1 settings made for z
set atom 16 x 8.51564561038312 y 5.345548719467753 z 18.43182265401128
Setting atom values ...
  1 settings made for x
  1 settings made for y
  1 settings made for z
set atom 17 x 7.120798580110294 y 1.320994247793768 z 18.432298186314508
Setting atom values ...
  1 settings made for x
  1 settings made for y
  1 settings made for z
set atom 18 x 6.190907353302533 y 2.394052527719787 z 18.430785017630825
Setting atom values ...
  1 settings made for x
  1 settings made for y
  1 settings made for z
set atom 19 x 2.473255469061273 y 2.930974264579005 z 18.42905145787938
Setting atom values ...
  1 settings made for x
  1 settings made for y
  1 settings made for z
set atom 20 x 8.05056632750521 y 4.004080135830174 z 18.429626577327287
Setting atom values ...
  1 settings made for x
  1 settings made for y
  1 settings made for z
set atom 21 x 4.332647029068057 y 4.541011503034323 z 18.429560429022565
Setting atom values ...
  1 settings made for x
  1 settings made for y
  1 settings made for z
set atom 22 x 0.14952801447655253 y -0.020877461389871656 z 18.432403562374745
Setting atom values ...
  1 settings made for x
  1 settings made for y
  1 settings made for z
set atom 23 x 2.9379161441839066 y 0.5159856889373872 z 18.429568403314196
Setting atom values ...
  1 settings made for x
  1 settings made for y
  1 settings made for z
set atom 24 x 2.0081855829220667 y 1.5895059814815011 z 18.43010621641526
Setting atom values ...
  1 settings made for x
  1 settings made for y
  1 settings made for z
set atom 25 x 4.796699653646689 y 2.1253503349599256 z 18.430216753674745
Setting atom values ...
  1 settings made for x
  1 settings made for y
  1 settings made for z
set atom 26 x 3.8677142163626095 y 3.199122114390961 z 18.42801498197788
Setting atom values ...
  1 settings made for x
  1 settings made for y
  1 settings made for z
set atom 27 x 5.7268402809421515 y 4.809383778065332 z 18.42907665225737
Setting atom values ...
  1 settings made for x
  1 settings made for y
  1 settings made for z
set atom 28 x 4.33222856305162 y 0.7835514922882529 z 18.43099404777536
Setting atom values ...
  1 settings made for x
  1 settings made for y
  1 settings made for z
run 0
WARNING: No fixes with time integration, atoms won't move (../verlet.cpp:60)
Per MPI rank memory allocation (min/avg/max) = 7.219 | 7.219 | 7.219 Mbytes
Step Temp E_pair E_mol TotEng Press 
       0 1.1948588e-18   -207.65981            0   -207.65981  0.051013677 
Loop time of 5.24e-07 on 1 procs for 0 steps with 28 atoms

190.8% CPU use with 1 MPI tasks x no OpenMP threads

MPI task timing breakdown:
Section |  min time  |  avg time  |  max time  |%varavg| %total
---------------------------------------------------------------
Pair    | 0          | 0          | 0          |   0.0 |  0.00
Bond    | 0          | 0          | 0          |   0.0 |  0.00
Neigh   | 0          | 0          | 0          |   0.0 |  0.00
Comm    | 0          | 0          | 0          |   0.0 |  0.00
Output  | 0          | 0          | 0          |   0.0 |  0.00
Modify  | 0          | 0          | 0          |   0.0 |  0.00
Other   |            | 5.24e-07   |            |       |100.00

Nlocal:             28 ave          28 max          28 min
Histogram: 1 0 0 0 0 0 0 0 0 0
Nghost:           1844 ave        1844 max        1844 min
Histogram: 1 0 0 0 0 0 0 0 0 0
Neighs:              0 ave           0 max           0 min
Histogram: 1 0 0 0 0 0 0 0 0 0
FullNghs:        16586 ave       16586 max       16586 min
Histogram: 1 0 0 0 0 0 0 0 0 0

Total # of neighbors = 16586
Ave neighs/atom = 592.35714
Ave special neighs/atom = 0
Neighbor list builds = 0
Dangerous builds = 0
set atom 1 x 5.0609108519685515 y 0.42349865087328264 z 14.920446929949163
Setting atom values ...
  1 settings made for x
  1 settings made for y
  1 settings made for z
set atom 2 x 0.8781631407173182 y 1.228142573129949 z 14.918303902596875
Setting atom values ...
  1 settings made for x
  1 settings made for y
  1 settings made for z
set atom 3 x 3.2016604796083947 y 2.032946134696483 z 14.921501717854202
Setting atom values ...
  1 settings made for x
  1 settings made for y
  1 settings made for z
set atom 4 x 7.849579979706738 y 3.6434287722540883 z 14.920792520304564
Setting atom values ...
  1 settings made for x
  1 settings made for y
  1 settings made for z
set atom 5 x 7.384669721210859 y 4.985118350024393 z 14.921692470277957
Setting atom values ...
  1 settings made for x
  1 settings made for y
  1 settings made for z
set atom 6 x 3.666096794397284 y 4.448323750124571 z 14.917650540830072
Setting atom values ...
  1 settings made for x
  1 settings made for y
  1 settings made for z
set atom 7 x -0.051705007483364845 y 0.1550347266795668 z 14.917623986382242
Setting atom values ...
  1 settings made for x
  1 settings made for y
  1 settings made for z
set atom 8 x 5.990261940157362 y 5.252675490111627 z 14.919742781571898
Setting atom values ...
  1 settings made for x
  1 settings made for y
  1 settings made for z
set atom 9 x 2.2723841220652297 y 0.9593030297974985 z 14.919433993695893
Setting atom values ...
  1 settings made for x
  1 settings made for y
  1 settings made for z
set atom 10 x 4.596070207085967 y 1.7650137122904588 z 14.921148145030157
Setting atom values ...
  1 settings made for x
  1 settings made for y
  1 settings made for z
set atom 11 x 6.920359404596651 y 2.5699097091342655 z 14.92060272150318
Setting atom values ...
  1 settings made for x
  1 settings made for y
  1 settings made for z
set atom 12 x 2.736783666795332 y 3.3748724070049865 z 14.920012249178237
Setting atom values ...
  1 settings made for x
  1 settings made for y
  1 settings made for z
set atom 13 x 5.525766390647964 y 2.838208860310329 z 14.920710719803466
Setting atom values ...
  1 settings made for x
  1 settings made for y
  1 settings made for z
set atom 14 x 5.0604152105577445 y 4.17952158666542 z 14.91867220032107
Setting atom values ...
  1 settings made for x
  1 settings made for y
  1 settings made for z
set atom 15 x 6.480615245432638 y 3.5346283215517684 z 18.428525614321448
Setting atom values ...
  1 settings made for x
  1 settings made for y
  1 settings made for z
set atom 16 x 8.339929581576841 y 5.144085783602138 z 18.429646220385035
Setting atom values ...
  1 settings made for x
  1 settings made for y
  1 settings made for z
set atom 17 x 6.945096292315094 y 1.1192757120546553 z 18.43253297635631
Setting atom values ...
  1 settings made for x
  1 settings made for y
  1 settings made for z
set atom 18 x 6.015737057882904 y 2.192701196775264 z 18.430146700101663
Setting atom values ...
  1 settings made for x
  1 settings made for y
  1 settings made for z
set atom 19 x 2.2977856805433876 y 2.729400632648671 z 18.429237664954957
Setting atom values ...
  1 settings made for x
  1 settings made for y
  1 settings made for z
set atom 20 x 7.875036490894022 y 3.8025942303296167 z 18.428842873860702
Setting atom values ...
  1 settings made for x
  1 settings made for y
  1 settings made for z
set atom 21 x 4.157159234249811 y 4.339432703110905 z 18.431501425521756
Setting atom values ...
  1 settings made for x
  1 settings made for y
  1 settings made for z
set atom 22 x -0.0261532468639384 y -0.22261306040064793 z 18.432403345336336
Setting atom values ...
  1 settings made for x
  1 settings made for y
  1 settings made for z
set atom 23 x 2.76232475482139 y 0.31491137674593206 z 18.430284782300095
Setting atom values ...
  1 settings made for x
  1 settings made for y
  1 settings made for z
set atom 24 x 1.8324666487370633 y 1.3880780852584909 z 18.43142484227299
Setting atom values ...
  1 settings made for x
  1 settings made for y
  1 settings made for z
set atom 25 x 4.621601458272573 y 1.9241316648454587 z 18.42931352628571
Setting atom values ...
  1 settings made for x
  1 settings made for y
  1 settings made for z
set atom 26 x 3.6923842470782744 y 2.9976638757757734 z 18.429192274392175
Setting atom values ...
  1 settings made for x
  1 settings made for y
  1 settings made for z
set atom 27 x 5.551373684798439 y 4.60827656055346 z 18.43049803426683
Setting atom values ...
  1 settings made for x
  1 settings made for y
  1 settings made for z
set atom 28 x 4.1567304146883215 y 0.5824452385156234 z 18.428497486301698
Setting atom values ...
  1 settings made for x
  1 settings made for y
  1 settings made for z
run 0
WARNING: No fixes with time integration, atoms won't move (../verlet.cpp:60)
Per MPI rank memory allocation (min/avg/max) = 7.219 | 7.219 | 7.219 Mbytes
Step Temp E_pair E_mol TotEng Press 
       0 1.1948588e-18   -207.65965            0   -207.65965  0.097422708 
Loop time of 5.54e-07 on 1 procs for 0 steps with 28 atoms

180.5% CPU use with 1 MPI tasks x no OpenMP threads

MPI task timing breakdown:
Section |  min time  |  avg time  |  max time  |%varavg| %total
---------------------------------------------------------------
Pair    | 0          | 0          | 0          |   0.0 |  0.00
Bond    | 0          | 0          | 0          |   0.0 |  0.00
Neigh   | 0          | 0          | 0          |   0.0 |  0.00
Comm    | 0          | 0          | 0          |   0.0 |  0.00
Output  | 0          | 0          | 0          |   0.0 |  0.00
Modify  | 0          | 0          | 0          |   0.0 |  0.00
Other   |            | 5.54e-07   |            |       |100.00

Nlocal:             28 ave          28 max          28 min
Histogram: 1 0 0 0 0 0 0 0 0 0
Nghost:           1865 ave        1865 max        1865 min
Histogram: 1 0 0 0 0 0 0 0 0 0
Neighs:              0 ave           0 max           0 min
Histogram: 1 0 0 0 0 0 0 0 0 0
FullNghs:        16588 ave       16588 max       16588 min
Histogram: 1 0 0 0 0 0 0 0 0 0

Total # of neighbors = 16588
Ave neighs/atom = 592.42857
Ave special neighs/atom = 0
Neighbor list builds = 0
Dangerous builds = 0
set atom 1 x 5.073840308352509 y 0.2353877942106328 z 15.106460160742934
Setting atom values ...
  1 settings made for x
  1 settings made for y
  1 settings made for z
set atom 2 x 0.891232771739067 y 1.039252996431216 z 15.106460208386704
Setting atom values ...
  1 settings made for x
  1 settings made for y
  1 settings made for z
set atom 3 x 3.214592380310488 y 1.8447354683766404 z 15.112540826751967
Setting atom values ...
  1 settings made for x
  1 settings made for y
  1 settings made for z
set atom 4 x 7.862064259904353 y 3.455314276396113 z 15.110019924054038
Setting atom values ...
  1 settings made for x
  1 settings made for y
  1 settings made for z
set atom 5 x 7.397303202250804 y 4.797251858763637 z 15.109834435434896
Setting atom values ...
  1 settings made for x
  1 settings made for y
  1 settings made for z
set atom 6 x 3.6787040622664393 y 4.259565616317915 z 15.106460185898756
Setting atom values ...
  1 settings made for x
  1 settings made for y
  1 settings made for z
set atom 7 x -0.038874098973266616 y -0.03365485507636332 z 15.103807178897863
Setting atom values ...
  1 settings made for x
  1 settings made for y
  1 settings made for z
set atom 8 x 6.002987793531952 y 5.064275704400518 z 15.1100199130576
Setting atom values ...
  1 settings made for x
  1 settings made for y
  1 settings made for z
set atom 9 x 2.285355364558428 y 0.7708485533083634 z 15.109581340256804
Setting atom values ...
  1 settings made for x
  1 settings made for y
  1 settings made for z
set atom 10 x 4.6092241291230645 y 1.5769356651512991 z 15.109581310968892
Setting atom values ...
  1 settings made for x
  1 settings made for y
  1 settings made for z
set atom 11 x 6.933657410018153 y 2.38131334698594 z 15.109834494401213
Setting atom values ...
  1 settings made for x
  1 settings made for y
  1 settings made for z
set atom 12 x 2.749197993816487 y 3.1864219644537024 z 15.109581334455891
Setting atom values ...
  1 settings made for x
  1 settings made for y
  1 settings made for z
set atom 13 x 5.539124879148192 y 2.6497871718652872 z 15.110019931804803
Setting atom values ...
  1 settings made for x
  1 settings made for y
  1 settings made for z
set atom 14 x 5.07321666111843 y 3.9908117287378473 z 15.109834473155075
Setting atom values ...
  1 settings made for x
  1 settings made for y
  1 settings made for z
set atom 15 x 6.468058970363033 y 3.7231250652283614 z 18.23748740857899
Setting atom values ...
  1 settings made for x
  1 settings made for y
  1 settings made for z
set atom 16 x 8.327306897707848 y 5.332472739434398 z 18.24356805554026
Setting atom values ...
  1 settings made for x
  1 settings made for y
  1 settings made for z
set atom 17 x 6.932170652750602 y 1.308294917516446 z 18.243568114197352
Setting atom values ...
  1 settings made for x
  1 settings made for y
  1 settings made for z
set atom 18 x 6.002664583807565 y 2.3814385691333855 z 18.240446929874768
Setting atom values ...
  1 settings made for x
  1 settings made for y
  1 settings made for z
set atom 19 x 2.285658277618146 y 2.9180733619182098 z 18.2400083200143
Setting atom values ...
  1 settings made for x
  1 settings made for y
  1 settings made for z
set atom 20 x 7.862690718970244 y 3.9909248682195564 z 18.240446904152474
Setting atom values ...
  1 settings made for x
  1 settings made for y
  1 settings made for z
set atom 21 x 4.144699361728746 y 4.528607537826256 z 18.243568040849123
Setting atom values ...
  1 settings made for x
  1 settings made for y
  1 settings made for z
set atom 22 x -0.038874105342555164 y -0.033655362905927785 z 18.246221082750473
Setting atom values ...
  1 settings made for x
  1 settings made for y
  1 settings made for z
set atom 23 x 2.749521191345575 y 0.5035848288264005 z 18.2400082671779
Setting atom values ...
  1 settings made for x
  1 settings made for y
  1 settings made for z
set atom 24 x 1.8197500597460428 y 1.5770488050655476 z 18.240193776602258
Setting atom values ...
  1 settings made for x
  1 settings made for y
  1 settings made for z
set atom 25 x 4.60859765833134 y 2.1125462576101044 z 18.240008299671114
Setting atom values ...
  1 settings made for x
  1 settings made for y
  1 settings made for z
set atom 26 x 3.680190808344158 y 3.18654718710075 z 18.240193748996642
Setting atom values ...
  1 settings made for x
  1 settings made for y
  1 settings made for z
set atom 27 x 5.538821954641397 y 4.797011980040855 z 18.240446857335506
Setting atom values ...
  1 settings made for x
  1 settings made for y
  1 settings made for z
set atom 28 x 4.143836600195957 y 0.7706086754311113 z 18.240193730221414
Setting atom values ...
  1 settings made for x
  1 settings made for y
  1 settings made for z
run 0
WARNING: No fixes with time integration, atoms won't move (../verlet.cpp:60)
Per MPI rank memory allocation (min/avg/max) = 7.219 | 7.219 | 7.219 Mbytes
Step Temp E_pair E_mol TotEng Press 
       0 1.1948588e-18   -207.43964            0   -207.43964    398.66485 
Loop time of 6.47e-07 on 1 procs for 0 steps with 28 atoms

154.6% CPU use with 1 MPI tasks x no OpenMP threads

MPI task timing breakdown:
Section |  min time  |  avg time  |  max time  |%varavg| %total
---------------------------------------------------------------
Pair    | 0          | 0          | 0          |   0.0 |  0.00
Bond    | 0          | 0          | 0          |   0.0 |  0.00
Neigh   | 0          | 0          | 0          |   0.0 |  0.00
Comm    | 0          | 0          | 0          |   0.0 |  0.00
Output  | 0          | 0          | 0          |   0.0 |  0.00
Modify  | 0          | 0          | 0          |   0.0 |  0.00
Other   |            | 6.47e-07   |            |       |100.00

Nlocal:             28 ave          28 max          28 min
Histogram: 1 0 0 0 0 0 0 0 0 0
Nghost:           1823 ave        1823 max        1823 min
Histogram: 1 0 0 0 0 0 0 0 0 0
Neighs:              0 ave           0 max           0 min
Histogram: 1 0 0 0 0 0 0 0 0 0
FullNghs:        16670 ave       16670 max       16670 min
Histogram: 1 0 0 0 0 0 0 0 0 0

Total # of neighbors = 16670
Ave neighs/atom = 595.35714
Ave special neighs/atom = 0
Neighbor list builds = 0
Dangerous builds = 0
set atom 1 x 5.073607089630544 y 0.23508362213787298 z 14.703096287022797
Setting atom values ...
  1 settings made for x
  1 settings made for y
  1 settings made for z
set atom 2 x 0.8910859370576777 y 1.0396070608997425 z 14.703128568499386
Setting atom values ...
  1 settings made for x
  1 settings made for y
  1 settings made for z
set atom 3 x 3.214592353455249 y 1.8447354120897188 z 15.14640496359029
Setting atom values ...
  1 settings made for x
  1 settings made for y
  1 settings made for z
set atom 4 x 7.862227026805882 y 3.455132381194943 z 15.061117214172945
Setting atom values ...
  1 settings made for x
  1 settings made for y
  1 settings made for z
set atom 5 x 7.397467713911529 y 4.796928302874461 z 14.975590641356861
Setting atom values ...
  1 settings made for x
  1 settings made for y
  1 settings made for z
set atom 6 x 3.6790840913407976 y 4.259515714827244 z 14.703124573657401
Setting atom values ...
  1 settings made for x
  1 settings made for y
  1 settings made for z
set atom 7 x -0.03887409264225559 y -0.03365487014336047 z 14.456872198350643
Setting atom values ...
  1 settings made for x
  1 settings made for y
  1 settings made for z
set atom 8 x 6.003063929388471 y 5.064507637950156 z 15.061185513251491
Setting atom values ...
  1 settings made for x
  1 settings made for y
  1 settings made for z
set atom 9 x 2.2850644239592706 y 0.7710364615960976 z 15.018532673894294
Setting atom values ...
  1 settings made for x
  1 settings made for y
  1 settings made for z
set atom 10 x 4.609206808395123 y 1.5765898026070593 z 15.018474362498033
Setting atom values ...
  1 settings made for x
  1 settings made for y
  1 settings made for z
set atom 11 x 6.933294916297703 y 2.3813326680447267 z 14.975576933454008
Setting atom values ...
  1 settings made for x
  1 settings made for y
  1 settings made for z
set atom 12 x 2.749506192431253 y 3.186579856524925 z 15.01847989094305
Setting atom values ...
  1 settings made for x
  1 settings made for y
  1 settings made for z
set atom 13 x 5.53888597151971 y 2.6497372001222996 z 15.06113285498399
Setting atom values ...
  1 settings made for x
  1 settings made for y
  1 settings made for z
set atom 14 x 5.073414618564339 y 3.9911160391424287 z 14.975622970978325
Setting atom values ...
  1 settings made for x
  1 settings made for y
  1 settings made for z
set atom 15 x 6.468058993354633 y 3.723125008806163 z 18.653429593196776
Setting atom values ...
  1 settings made for x
  1 settings made for y
  1 settings made for z
set atom 16 x 8.3274035245433 y 5.332910886917088 z 18.215522788747805
Setting atom values ...
  1 settings made for x
  1 settings made for y
  1 settings made for z
set atom 17 x 6.932501789433832 y 1.3079921476674423 z 18.215551017372537
Setting atom values ...
  1 settings made for x
  1 settings made for y
  1 settings made for z
set atom 18 x 6.003005922645187 y 2.381579125127718 z 18.52811018860528
Setting atom values ...
  1 settings made for x
  1 settings made for y
  1 settings made for z
set atom 19 x 2.2852302166867875 y 2.9180532285520377 z 18.570330491646494
Setting atom values ...
  1 settings made for x
  1 settings made for y
  1 settings made for z
set atom 20 x 7.862398281495701 y 3.991150188338791 z 18.52810680108327
Setting atom values ...
  1 settings made for x
  1 settings made for y
  1 settings made for z
set atom 21 x 4.1442716224370555 y 4.528472154711388 z 18.215555421056347
Setting atom values ...
  1 settings made for x
  1 settings made for y
  1 settings made for z
set atom 22 x -0.03887411434839885 y -0.03365537565864691 z 17.971651914461052
Setting atom values ...
  1 settings made for x
  1 settings made for y
  1 settings made for z
set atom 23 x 2.7497527004762423 y 0.5032242306154199 z 18.57038172495506
Setting atom values ...
  1 settings made for x
  1 settings made for y
  1 settings made for z
set atom 24 x 1.8200830638698104 y 1.5766505534054565 z 18.485005788852522
Setting atom values ...
  1 settings made for x
  1 settings made for y
  1 settings made for z
set atom 25 x 4.608794214625018 y 2.112927054248064 z 18.570311942113932
Setting atom values ...
  1 settings made for x
  1 settings made for y
  1 settings made for z
set atom 26 x 3.679679389027517 y 3.1864579709757606 z 18.484958999048374
Setting atom values ...
  1 settings made for x
  1 settings made for y
  1 settings made for z
set atom 27 x 5.538773111815937 y 4.796646040565472 z 18.528164221238466
Setting atom values ...
  1 settings made for x
  1 settings made for y
  1 settings made for z
set atom 28 x 4.144015047482546 y 0.7710962215917903 z 18.484971454382162
Setting atom values ...
  1 settings made for x
  1 settings made for y
  1 settings made for z
run 0
WARNING: No fixes with time integration, atoms won't move (../verlet.cpp:60)
Per MPI rank memory allocation (min/avg/max) = 7.219 | 7.219 | 7.219 Mbytes
Step Temp E_pair E_mol TotEng Press 
       0 1.1948588e-18   -205.66091            0   -205.66091   -1786.4126 
Loop time of 6.13e-07 on 1 procs for 0 steps with 28 atoms

163.1% CPU use with 1 MPI tasks x no OpenMP threads

MPI task timing breakdown:
Section |  min time  |  avg time  |  max time  |%varavg| %total
---------------------------------------------------------------
Pair    | 0          | 0          | 0          |   0.0 |  0.00
Bond    | 0          | 0          | 0          |   0.0 |  0.00
Neigh   | 0          | 0          | 0          |   0.0 |  0.00
Comm    | 0          | 0          | 0          |   0.0 |  0.00
Output  | 0          | 0          | 0          |   0.0 |  0.00
Modify  | 0          | 0          | 0          |   0.0 |  0.00
Other   |            | 6.13e-07   |            |       |100.00

Nlocal:             28 ave          28 max          28 min
Histogram: 1 0 0 0 0 0 0 0 0 0
Nghost:           1823 ave        1823 max        1823 min
Histogram: 1 0 0 0 0 0 0 0 0 0
Neighs:              0 ave           0 max           0 min
Histogram: 1 0 0 0 0 0 0 0 0 0
FullNghs:        16598 ave       16598 max       16598 min
Histogram: 1 0 0 0 0 0 0 0 0 0

Total # of neighbors = 16598
Ave neighs/atom = 592.78571
Ave special neighs/atom = 0
Neighbor list builds = 0
Dangerous builds = 0
set atom 1 x 5.073580627822861 y 0.23500262176461995 z 14.622281442604267
Setting atom values ...
  1 settings made for x
  1 settings made for y
  1 settings made for z
set atom 2 x 0.8907603763438527 y 1.039463122651852 z 15.066253489811526
Setting atom values ...
  1 settings made for x
  1 settings made for y
  1 settings made for z
set atom 3 x 3.214339624597415 y 1.8445162952040088 z 14.92148131851884
Setting atom values ...
  1 settings made for x
  1 settings made for y
  1 settings made for z
set atom 4 x 7.862159434923232 y 3.4549897666297067 z 14.731599856755548
Setting atom values ...
  1 settings made for x
  1 settings made for y
  1 settings made for z
set atom 5 x 7.397105994866891 y 4.796886860536694 z 14.765353836908698
Setting atom values ...
  1 settings made for x
  1 settings made for y
  1 settings made for z
set atom 6 x 3.678889213580508 y 4.2596732363670275 z 15.067937251299497
Setting atom values ...
  1 settings made for x
  1 settings made for y
  1 settings made for z
set atom 7 x -0.03876400445675776 y -0.03373023653581709 z 14.91767391532502
Setting atom values ...
  1 settings made for x
  1 settings made for y
  1 settings made for z
set atom 8 x 6.002906257080656 y 5.064746405797411 z 15.194319809726862
Setting atom values ...
  1 settings made for x
  1 settings made for y
  1 settings made for z
set atom 9 x 2.2847393652588077 y 0.771018390212943 z 15.217031127348186
Setting atom values ...
  1 settings made for x
  1 settings made for y
  1 settings made for z
set atom 10 x 4.608911212798068 y 1.5768329786065822 z 14.664285924082076
Setting atom values ...
  1 settings made for x
  1 settings made for y
  1 settings made for z
set atom 11 x 6.933126502186149 y 2.38133832801297 z 14.826227929607782
Setting atom values ...
  1 settings made for x
  1 settings made for y
  1 settings made for z
set atom 12 x 2.749471832681928 y 3.1862190171872435 z 14.879251587487472
Setting atom values ...
  1 settings made for x
  1 settings made for y
  1 settings made for z
set atom 13 x 5.538819885632357 y 2.64996856692103 z 14.835278345324763
Setting atom values ...
  1 settings made for x
  1 settings made for y
  1 settings made for z
set atom 14 x 5.073311333358381 y 3.991406594602706 z 15.169363848581076
Setting atom values ...
  1 settings made for x
  1 settings made for y
  1 settings made for z
set atom 15 x 6.468294696109937 y 3.7228876730454505 z 18.428504435205916
Setting atom values ...
  1 settings made for x
  1 settings made for y
  1 settings made for z
set atom 16 x 8.327427149365997 y 5.332817019328062 z 18.13545909246694
Setting atom values ...
  1 settings made for x
  1 settings made for y
  1 settings made for z
set atom 17 x 6.932694243803528 y 1.3081352547734895 z 18.56085352730065
Setting atom values ...
  1 settings made for x
  1 settings made for y
  1 settings made for z
set atom 18 x 6.003049160163152 y 2.381190137328954 z 18.365222676343375
Setting atom values ...
  1 settings made for x
  1 settings made for y
  1 settings made for z
set atom 19 x 2.285298024326263 y 2.918267457291367 z 18.364613020230195
Setting atom values ...
  1 settings made for x
  1 settings made for y
  1 settings made for z
set atom 20 x 7.862673070824348 y 3.991372095684879 z 18.189155072667322
Setting atom values ...
  1 settings made for x
  1 settings made for y
  1 settings made for z
set atom 21 x 4.144595899785655 y 4.528314935380466 z 18.597437777418357
Setting atom values ...
  1 settings made for x
  1 settings made for y
  1 settings made for z
set atom 22 x -0.03898951005909165 y -0.03372233366340693 z 18.432452589736872
Setting atom values ...
  1 settings made for x
  1 settings made for y
  1 settings made for z
set atom 23 x 2.749912991912137 y 0.5034655772615246 z 18.698296868716923
Setting atom values ...
  1 settings made for x
  1 settings made for y
  1 settings made for z
set atom 24 x 1.8201803815404822 y 1.5769216979827734 z 18.675436128919817
Setting atom values ...
  1 settings made for x
  1 settings made for y
  1 settings made for z
set atom 25 x 4.608881056076049 y 2.112776381442549 z 18.225879903438834
Setting atom values ...
  1 settings made for x
  1 settings made for y
  1 settings made for z
set atom 26 x 3.679862380015066 y 3.1864392469158327 z 18.353248918368905
Setting atom values ...
  1 settings made for x
  1 settings made for y
  1 settings made for z
set atom 27 x 5.5390981668077695 y 4.796628966044368 z 18.735082938299783
Setting atom values ...
  1 settings made for x
  1 settings made for y
  1 settings made for z
set atom 28 x 4.1443853751962125 y 0.7710506707171618 z 18.260409646629963
Setting atom values ...
  1 settings made for x
  1 settings made for y
  1 settings made for z
run 0
WARNING: No fixes with time integration, atoms won't move (../verlet.cpp:60)
Per MPI rank memory allocation (min/avg/max) = 7.219 | 7.219 | 7.219 Mbytes
Step Temp E_pair E_mol TotEng Press 
       0 1.1948588e-18   -205.63166            0   -205.63166   -1739.0688 
Loop time of 6.47e-07 on 1 procs for 0 steps with 28 atoms

154.6% CPU use with 1 MPI tasks x no OpenMP threads

MPI task timing breakdown:
Section |  min time  |  avg time  |  max time  |%varavg| %total
---------------------------------------------------------------
Pair    | 0          | 0          | 0          |   0.0 |  0.00
Bond    | 0          | 0          | 0          |   0.0 |  0.00
Neigh   | 0          | 0          | 0          |   0.0 |  0.00
Comm    | 0          | 0          | 0          |   0.0 |  0.00
Output  | 0          | 0          | 0          |   0.0 |  0.00
Modify  | 0          | 0          | 0          |   0.0 |  0.00
Other   |            | 6.47e-07   |            |       |100.00

Nlocal:             28 ave          28 max          28 min
Histogram: 1 0 0 0 0 0 0 0 0 0
Nghost:           1823 ave        1823 max        1823 min
Histogram: 1 0 0 0 0 0 0 0 0 0
Neighs:              0 ave           0 max           0 min
Histogram: 1 0 0 0 0 0 0 0 0 0
FullNghs:        16572 ave       16572 max       16572 min
Histogram: 1 0 0 0 0 0 0 0 0 0

Total # of neighbors = 16572
Ave neighs/atom = 591.85714
Ave special neighs/atom = 0
Neighbor list builds = 0
Dangerous builds = 0
set atom 1 x 5.073741066172571 y 0.23518985150646723 z 14.919772960785764
Setting atom values ...
  1 settings made for x
  1 settings made for y
  1 settings made for z
set atom 2 x 0.8909351198110981 y 1.039677223005164 z 14.661508918583946
Setting atom values ...
  1 settings made for x
  1 settings made for y
  1 settings made for z
set atom 3 x 3.2143731804864637 y 1.8449882160746334 z 14.92151323938459
Setting atom values ...
  1 settings made for x
  1 settings made for y
  1 settings made for z
set atom 4 x 7.862505482671465 y 3.455142675848129 z 15.127712942920038
Setting atom values ...
  1 settings made for x
  1 settings made for y
  1 settings made for z
set atom 5 x 7.397604023712406 y 4.796899915337549 z 15.118433031483832
Setting atom values ...
  1 settings made for x
  1 settings made for y
  1 settings made for z
set atom 6 x 3.6790335357037796 y 4.259886225292769 z 15.175120736813941
Setting atom values ...
  1 settings made for x
  1 settings made for y
  1 settings made for z
set atom 7 x -0.03894948509288422 y -0.03376495043488076 z 14.91762395929901
Setting atom values ...
  1 settings made for x
  1 settings made for y
  1 settings made for z
set atom 8 x 6.003185582691887 y 5.064530839786121 z 14.98027115107034
Setting atom values ...
  1 settings made for x
  1 settings made for y
  1 settings made for z
set atom 9 x 2.2852020199875356 y 0.7711160690955097 z 14.796099403060634
Setting atom values ...
  1 settings made for x
  1 settings made for y
  1 settings made for z
set atom 10 x 4.6087957972739515 y 1.5769287635833693 z 14.725180126091288
Setting atom values ...
  1 settings made for x
  1 settings made for y
  1 settings made for z
set atom 11 x 6.9334196630294205 y 2.381695957266973 z 14.68706751975092
Setting atom values ...
  1 settings made for x
  1 settings made for y
  1 settings made for z
set atom 12 x 2.7496438405929324 y 3.186816415717238 z 15.239331968842482
Setting atom values ...
  1 settings made for x
  1 settings made for y
  1 settings made for z
set atom 13 x 5.53881348299892 y 2.6499949700452254 z 14.653251541801342
Setting atom values ...
  1 settings made for x
  1 settings made for y
  1 settings made for z
set atom 14 x 5.073408483813956 y 3.9914144698098037 z 14.955452145960106
Setting atom values ...
  1 settings made for x
  1 settings made for y
  1 settings made for z
set atom 15 x 6.467821545510788 y 3.722889345230691 z 18.42851577134033
Setting atom values ...
  1 settings made for x
  1 settings made for y
  1 settings made for z
set atom 16 x 8.327193477819982 y 5.332672207668726 z 18.452348418336843
Setting atom values ...
  1 settings made for x
  1 settings made for y
  1 settings made for z
set atom 17 x 6.932487499291178 y 1.3079762497950216 z 18.16451052793951
Setting atom values ...
  1 settings made for x
  1 settings made for y
  1 settings made for z
set atom 18 x 6.003106297782614 y 2.3810609519233155 z 18.11463271856493
Setting atom values ...
  1 settings made for x
  1 settings made for y
  1 settings made for z
set atom 19 x 2.2853489400010107 y 2.917851559657428 z 18.702375271151194
Setting atom values ...
  1 settings made for x
  1 settings made for y
  1 settings made for z
set atom 20 x 7.8622513693662155 y 3.9909189185788962 z 18.64337007470427
Setting atom values ...
  1 settings made for x
  1 settings made for y
  1 settings made for z
set atom 21 x 4.144387943664581 y 4.528186388859323 z 18.676819353684056
Setting atom values ...
  1 settings made for x
  1 settings made for y
  1 settings made for z
set atom 22 x -0.03894108502327355 y -0.03353995773456737 z 18.432401837384
Setting atom values ...
  1 settings made for x
  1 settings made for y
  1 settings made for z
set atom 23 x 2.74970132062919 y 0.5033165860412369 z 18.3495192364713
Setting atom values ...
  1 settings made for x
  1 settings made for y
  1 settings made for z
set atom 24 x 1.8199293581597529 y 1.5764286179506621 z 18.3761213601848
Setting atom values ...
  1 settings made for x
  1 settings made for y
  1 settings made for z
set atom 25 x 4.609031858089936 y 2.1127213787628043 z 18.236955952829273
Setting atom values ...
  1 settings made for x
  1 settings made for y
  1 settings made for z
set atom 26 x 3.679945507378055 y 3.1861676719489505 z 18.66932022685248
Setting atom values ...
  1 settings made for x
  1 settings made for y
  1 settings made for z
set atom 27 x 5.538635326619122 y 4.7967524164430975 z 18.531471039708716
Setting atom values ...
  1 settings made for x
  1 settings made for y
  1 settings made for z
set atom 28 x 4.144109591231402 y 0.7709577485920495 z 18.243690625338203
Setting atom values ...
  1 settings made for x
  1 settings made for y
  1 settings made for z
run 0
WARNING: No fixes with time integration, atoms won't move (../verlet.cpp:60)
Per MPI rank memory allocation (min/avg/max) = 7.219 | 7.219 | 7.219 Mbytes
Step Temp E_pair E_mol TotEng Press 
       0 1.1948588e-18   -205.63394            0   -205.63394   -1741.5577 
Loop time of 5.43e-07 on 1 procs for 0 steps with 28 atoms

184.2% CPU use with 1 MPI tasks x no OpenMP threads

MPI task timing breakdown:
Section |  min time  |  avg time  |  max time  |%varavg| %total
---------------------------------------------------------------
Pair    | 0          | 0          | 0          |   0.0 |  0.00
Bond    | 0          | 0          | 0          |   0.0 |  0.00
Neigh   | 0          | 0          | 0          |   0.0 |  0.00
Comm    | 0          | 0          | 0          |   0.0 |  0.00
Output  | 0          | 0          | 0          |   0.0 |  0.00
Modify  | 0          | 0          | 0          |   0.0 |  0.00
Other   |            | 5.43e-07   |            |       |100.00

Nlocal:             28 ave          28 max          28 min
Histogram: 1 0 0 0 0 0 0 0 0 0
Nghost:           1823 ave        1823 max        1823 min
Histogram: 1 0 0 0 0 0 0 0 0 0
Neighs:              0 ave           0 max           0 min
Histogram: 1 0 0 0 0 0 0 0 0 0
FullNghs:        16568 ave       16568 max       16568 min
Histogram: 1 0 0 0 0 0 0 0 0 0

Total # of neighbors = 16568
Ave neighs/atom = 591.71429
Ave special neighs/atom = 0
Neighbor list builds = 0
Dangerous builds = 0
set atom 1 x 5.073650817274653 y 0.23508142458719275 z 14.892751334018119
Setting atom values ...
  1 settings made for x
  1 settings made for y
  1 settings made for z
set atom 2 x 0.8908093495574267 y 1.0389835206173943 z 15.175018490048748
Setting atom values ...
  1 settings made for x
  1 settings made for y
  1 settings made for z
set atom 3 x 3.2137900526521896 y 1.8447989345682063 z 14.921495579606239
Setting atom values ...
  1 settings made for x
  1 settings made for y
  1 settings made for z
set atom 4 x 7.862438692278813 y 3.4549827708122542 z 15.11345679034452
Setting atom values ...
  1 settings made for x
  1 settings made for y
  1 settings made for z
set atom 5 x 7.397896309993587 y 4.796791472191349 z 15.092035668457378
Setting atom values ...
  1 settings made for x
  1 settings made for y
  1 settings made for z
set atom 6 x 3.6794324097001714 y 4.25945441648424 z 14.688630160235386
Setting atom values ...
  1 settings made for x
  1 settings made for y
  1 settings made for z
set atom 7 x -0.03904072122882096 y -0.03354426325117612 z 14.917622983549785
Setting atom values ...
  1 settings made for x
  1 settings made for y
  1 settings made for z
set atom 8 x 6.003566933101959 y 5.0643611480723365 z 15.017290703026967
Setting atom values ...
  1 settings made for x
  1 settings made for y
  1 settings made for z
set atom 9 x 2.2847707660061904 y 0.7707348550582742 z 15.179644507407694
Setting atom values ...
  1 settings made for x
  1 settings made for y
  1 settings made for z
set atom 10 x 4.608385443498268 y 1.5768201825966435 z 14.691413003995756
Setting atom values ...
  1 settings made for x
  1 settings made for y
  1 settings made for z
set atom 11 x 6.933453968785754 y 2.380967113605964 z 15.040839961921865
Setting atom values ...
  1 settings made for x
  1 settings made for y
  1 settings made for z
set atom 12 x 2.749459100776244 y 3.1865534247974288 z 14.88952834054207
Setting atom values ...
  1 settings made for x
  1 settings made for y
  1 settings made for z
set atom 13 x 5.5389623075087435 y 2.649442117702345 z 14.630508276669532
Setting atom values ...
  1 settings made for x
  1 settings made for y
  1 settings made for z
set atom 14 x 5.07410907445689 y 3.9907724419682804 z 14.62810350501314
Setting atom values ...
  1 settings made for x
  1 settings made for y
  1 settings made for z
set atom 15 x 6.4672614578315315 y 3.723016762187823 z 18.428531243899883
Setting atom values ...
  1 settings made for x
  1 settings made for y
  1 settings made for z
set atom 16 x 8.327088315459363 y 5.332790308698105 z 18.472962730982434
Setting atom values ...
  1 settings made for x
  1 settings made for y
  1 settings made for z
set atom 17 x 6.932886070748582 y 1.3083891777749277 z 18.65191041877545
Setting atom values ...
  1 settings made for x
  1 settings made for y
  1 settings made for z
set atom 18 x 6.002915263671849 y 2.3812674729441334 z 18.44466322358661
Setting atom values ...
  1 settings made for x
  1 settings made for y
  1 settings made for z
set atom 19 x 2.285491856215933 y 2.9184378616105637 z 18.715953482412953
Setting atom values ...
  1 settings made for x
  1 settings made for y
  1 settings made for z
set atom 20 x 7.86183993264359 y 3.991035524632501 z 18.66763462361998
Setting atom values ...
  1 settings made for x
  1 settings made for y
  1 settings made for z
set atom 21 x 4.144279300849119 y 4.528888139809069 z 18.1688138147396
Setting atom values ...
  1 settings made for x
  1 settings made for y
  1 settings made for z
set atom 22 x -0.039034272852967955 y -0.03377511410818371 z 18.43240713436144
Setting atom values ...
  1 settings made for x
  1 settings made for y
  1 settings made for z
set atom 23 x 2.7500894003692054 y 0.5035047710895939 z 18.34850693812318
Setting atom values ...
  1 settings made for x
  1 settings made for y
  1 settings made for z
set atom 24 x 1.8206317786354507 y 1.577100239187471 z 18.723121782547594
Setting atom values ...
  1 settings made for x
  1 settings made for y
  1 settings made for z
set atom 25 x 4.608952522781978 y 2.112896310099084 z 18.22436597428161
Setting atom values ...
  1 settings made for x
  1 settings made for y
  1 settings made for z
set atom 26 x 3.6799778462885295 y 3.1869275841166003 z 18.294375303420143
Setting atom values ...
  1 settings made for x
  1 settings made for y
  1 settings made for z
set atom 27 x 5.538256237429318 y 4.797104898360635 z 18.177198736323906
Setting atom values ...
  1 settings made for x
  1 settings made for y
  1 settings made for z
set atom 28 x 4.144400534690327 y 0.771093232933558 z 18.27160715449579
Setting atom values ...
  1 settings made for x
  1 settings made for y
  1 settings made for z
run 0
WARNING: No fixes with time integration, atoms won't move (../verlet.cpp:60)
Per MPI rank memory allocation (min/avg/max) = 7.219 | 7.219 | 7.219 Mbytes
Step Temp E_pair E_mol TotEng Press 
       0 1.1948588e-18   -205.61122            0   -205.61122   -1727.4516 
Loop time of 6.17e-07 on 1 procs for 0 steps with 28 atoms

324.1% CPU use with 1 MPI tasks x no OpenMP threads

MPI task timing breakdown:
Section |  min time  |  avg time  |  max time  |%varavg| %total
---------------------------------------------------------------
Pair    | 0          | 0          | 0          |   0.0 |  0.00
Bond    | 0          | 0          | 0          |   0.0 |  0.00
Neigh   | 0          | 0          | 0          |   0.0 |  0.00
Comm    | 0          | 0          | 0          |   0.0 |  0.00
Output  | 0          | 0          | 0          |   0.0 |  0.00
Modify  | 0          | 0          | 0          |   0.0 |  0.00
Other   |            | 6.17e-07   |            |       |100.00

Nlocal:             28 ave          28 max          28 min
Histogram: 1 0 0 0 0 0 0 0 0 0
Nghost:           1823 ave        1823 max        1823 min
Histogram: 1 0 0 0 0 0 0 0 0 0
Neighs:              0 ave           0 max           0 min
Histogram: 1 0 0 0 0 0 0 0 0 0
FullNghs:        16584 ave       16584 max       16584 min
Histogram: 1 0 0 0 0 0 0 0 0 0

Total # of neighbors = 16584
Ave neighs/atom = 592.28571
Ave special neighs/atom = 0
Neighbor list builds = 0
Dangerous builds = 0
set atom 1 x 5.074294843885333 y 0.23521478115178468 z 15.199615728000396
Setting atom values ...
  1 settings made for x
  1 settings made for y
  1 settings made for z
set atom 2 x 0.8908893119108723 y 1.0397108138455913 z 14.800959994286483
Setting atom values ...
  1 settings made for x
  1 settings made for y
  1 settings made for z
set atom 3 x 3.21452889912295 y 1.8439331427095527 z 14.921488383130717
Setting atom values ...
  1 settings made for x
  1 settings made for y
  1 settings made for z
set atom 4 x 7.862587852911549 y 3.4553654880159113 z 14.69709141694572
Setting atom values ...
  1 settings made for x
  1 settings made for y
  1 settings made for z
set atom 5 x 7.39798377544528 y 4.797279399220504 z 15.158606234182052
Setting atom values ...
  1 settings made for x
  1 settings made for y
  1 settings made for z
set atom 6 x 3.6792800361248985 y 4.259396257899467 z 14.755851641876301
Setting atom values ...
  1 settings made for x
  1 settings made for y
  1 settings made for z
set atom 7 x -0.038984678802137046 y -0.03382146971861764 z 14.91764232956565
Setting atom values ...
  1 settings made for x
  1 settings made for y
  1 settings made for z
set atom 8 x 6.003324866299386 y 5.064673993674316 z 15.199249169598213
Setting atom values ...
  1 settings made for x
  1 settings made for y
  1 settings made for z
set atom 9 x 2.284859997966807 y 0.7707654092247218 z 15.034579012542759
Setting atom values ...
  1 settings made for x
  1 settings made for y
  1 settings made for z
set atom 10 x 4.609304494634278 y 1.5765590987565339 z 15.087687999524762
Setting atom values ...
  1 settings made for x
  1 settings made for y
  1 settings made for z
set atom 11 x 6.933383894582938 y 2.3819888162380014 z 14.652466634602106
Setting atom values ...
  1 settings made for x
  1 settings made for y
  1 settings made for z
set atom 12 x 2.749710705476507 y 3.185719498634329 z 14.638309967296507
Setting atom values ...
  1 settings made for x
  1 settings made for y
  1 settings made for z
set atom 13 x 5.538855335122894 y 2.6501286691557917 z 14.86489520343859
Setting atom values ...
  1 settings made for x
  1 settings made for y
  1 settings made for z
set atom 14 x 5.073655499823343 y 3.991390782327544 z 14.949896031926665
Setting atom values ...
  1 settings made for x
  1 settings made for y
  1 settings made for z
set atom 15 x 6.468167288678311 y 3.722327554810997 z 18.428510967545225
Setting atom values ...
  1 settings made for x
  1 settings made for y
  1 settings made for z
set atom 16 x 8.326723379271119 y 5.333045363291964 z 18.710142019168174
Setting atom values ...
  1 settings made for x
  1 settings made for y
  1 settings made for z
set atom 17 x 6.932285309843813 y 1.3078598461878117 z 18.255643135247645
Setting atom values ...
  1 settings made for x
  1 settings made for y
  1 settings made for z
set atom 18 x 6.002805270554299 y 2.380726764273987 z 18.146666300899085
Setting atom values ...
  1 settings made for x
  1 settings made for y
  1 settings made for z
set atom 19 x 2.285251378950865 y 2.9184256493973377 z 18.357941954286147
Setting atom values ...
  1 settings made for x
  1 settings made for y
  1 settings made for z
set atom 20 x 7.862339265971512 y 3.991129157118494 z 18.58424146272724
Setting atom values ...
  1 settings made for x
  1 settings made for y
  1 settings made for z
set atom 21 x 4.144475787093408 y 4.528546772495761 z 18.327920417280094
Setting atom values ...
  1 settings made for x
  1 settings made for y
  1 settings made for z
set atom 22 x -0.03875436787512131 y -0.03381552240565786 z 18.43242105625316
Setting atom values ...
  1 settings made for x
  1 settings made for y
  1 settings made for z
set atom 23 x 2.7494682278219766 y 0.5033786168715182 z 18.713434415563142
Setting atom values ...
  1 settings made for x
  1 settings made for y
  1 settings made for z
set atom 24 x 1.8198073386555402 y 1.5769030658396994 z 18.442866330488794
Setting atom values ...
  1 settings made for x
  1 settings made for y
  1 settings made for z
set atom 25 x 4.60842302013737 y 2.1131568283089637 z 18.217451539544342
Setting atom values ...
  1 settings made for x
  1 settings made for y
  1 settings made for z
set atom 26 x 3.6795775875611185 y 3.187090710984346 z 18.169019371124264
Setting atom values ...
  1 settings made for x
  1 settings made for y
  1 settings made for z
set atom 27 x 5.539000255020731 y 4.796353673671805 z 18.558560460720493
Setting atom values ...
  1 settings made for x
  1 settings made for y
  1 settings made for z
set atom 28 x 4.143476167717539 y 0.7714435651663074 z 18.677232834742124
Setting atom values ...
  1 settings made for x
  1 settings made for y
  1 settings made for z
run 0
WARNING: No fixes with time integration, atoms won't move (../verlet.cpp:60)
Per MPI rank memory allocation (min/avg/max) = 7.219 | 7.219 | 7.219 Mbytes
Step Temp E_pair E_mol TotEng Press 
       0 1.1948588e-18   -205.61919            0   -205.61919    -1732.912 
Loop time of 5.39e-07 on 1 procs for 0 steps with 28 atoms

185.5% CPU use with 1 MPI tasks x no OpenMP threads

MPI task timing breakdown:
Section |  min time  |  avg time  |  max time  |%varavg| %total
---------------------------------------------------------------
Pair    | 0          | 0          | 0          |   0.0 |  0.00
Bond    | 0          | 0          | 0          |   0.0 |  0.00
Neigh   | 0          | 0          | 0          |   0.0 |  0.00
Comm    | 0          | 0          | 0          |   0.0 |  0.00
Output  | 0          | 0          | 0          |   0.0 |  0.00
Modify  | 0          | 0          | 0          |   0.0 |  0.00
Other   |            | 5.39e-07   |            |       |100.00

Nlocal:             28 ave          28 max          28 min
Histogram: 1 0 0 0 0 0 0 0 0 0
Nghost:           1823 ave        1823 max        1823 min
Histogram: 1 0 0 0 0 0 0 0 0 0
Neighs:              0 ave           0 max           0 min
Histogram: 1 0 0 0 0 0 0 0 0 0
FullNghs:        16582 ave       16582 max       16582 min
Histogram: 1 0 0 0 0 0 0 0 0 0

Total # of neighbors = 16582
Ave neighs/atom = 592.21429
Ave special neighs/atom = 0
Neighbor list builds = 0
Dangerous builds = 0
set atom 1 x 5.0737533418315195 y 0.23517866750989164 z 14.949567761327698
Setting atom values ...
  1 settings made for x
  1 settings made for y
  1 settings made for z
set atom 2 x 0.891095142018128 y 1.0394328655435943 z 14.949583174308902
Setting atom values ...
  1 settings made for x
  1 settings made for y
  1 settings made for z
set atom 3 x 3.21459237361405 y 1.844735474156035 z 15.326408089215978
Setting atom values ...
  1 settings made for x
  1 settings made for y
  1 settings made for z
set atom 4 x 7.862661465781667 y 3.455059201403146 z 14.754467986663798
Setting atom values ...
  1 settings made for x
  1 settings made for y
  1 settings made for z
set atom 5 x 7.39730429588986 y 4.797032854078 z 14.709420032591476
Setting atom values ...
  1 settings made for x
  1 settings made for y
  1 settings made for z
set atom 6 x 3.67892866332429 y 4.25959487254433 z 14.949562267608595
Setting atom values ...
  1 settings made for x
  1 settings made for y
  1 settings made for z
set atom 7 x -0.03887410002472201 y -0.03365484035134729 z 14.962142125446746
Setting atom values ...
  1 settings made for x
  1 settings made for y
  1 settings made for z
set atom 8 x 6.002910103589172 y 5.064920444193105 z 14.754470577291952
Setting atom values ...
  1 settings made for x
  1 settings made for y
  1 settings made for z
set atom 9 x 2.2850504688926496 y 0.7714802759428854 z 15.116160644758768
Setting atom values ...
  1 settings made for x
  1 settings made for y
  1 settings made for z
set atom 10 x 4.608829478703359 y 1.576355760696863 z 15.116151464028201
Setting atom values ...
  1 settings made for x
  1 settings made for y
  1 settings made for z
set atom 11 x 6.93346719992245 y 2.3814219029556254 z 14.709433101398574
Setting atom values ...
  1 settings made for x
  1 settings made for y
  1 settings made for z
set atom 12 x 2.7498975242979187 y 3.1863701501996893 z 15.116144467387135
Setting atom values ...
  1 settings made for x
  1 settings made for y
  1 settings made for z
set atom 13 x 5.53860536964401 y 2.6493975054269745 z 14.754472508065458
Setting atom values ...
  1 settings made for x
  1 settings made for y
  1 settings made for z
set atom 14 x 5.073405799523263 y 3.990922164630372 z 14.709420007579089
Setting atom values ...
  1 settings made for x
  1 settings made for y
  1 settings made for z
set atom 15 x 6.468058960830422 y 3.7231250626674357 z 18.023631689792563
Setting atom values ...
  1 settings made for x
  1 settings made for y
  1 settings made for z
set atom 16 x 8.327219927133775 y 5.332681868539511 z 18.400460111586785
Setting atom values ...
  1 settings made for x
  1 settings made for y
  1 settings made for z
set atom 17 x 6.932395256999226 y 1.3082656638431365 z 18.400466595875788
Setting atom values ...
  1 settings made for x
  1 settings made for y
  1 settings made for z
set atom 18 x 6.003364119107591 y 2.38149038633142 z 18.23389015483529
Setting atom values ...
  1 settings made for x
  1 settings made for y
  1 settings made for z
set atom 19 x 2.285138773747538 y 2.9184630454590446 z 18.595551098670942
Setting atom values ...
  1 settings made for x
  1 settings made for y
  1 settings made for z
set atom 20 x 7.862296063856728 y 3.9915047782018536 z 18.233881719467295
Setting atom values ...
  1 settings made for x
  1 settings made for y
  1 settings made for z
set atom 21 x 4.14456172779763 y 4.528427663405138 z 18.400445392108942
Setting atom values ...
  1 settings made for x
  1 settings made for y
  1 settings made for z
set atom 22 x -0.03887410881375645 y -0.03365537711585624 z 18.387886199507903
Setting atom values ...
  1 settings made for x
  1 settings made for y
  1 settings made for z
set atom 23 x 2.7494434812811734 y 0.5029400872540046 z 18.595552190196727
Setting atom values ...
  1 settings made for x
  1 settings made for y
  1 settings made for z
set atom 24 x 1.8199391877629145 y 1.5769383901484522 z 18.64060192040334
Setting atom values ...
  1 settings made for x
  1 settings made for y
  1 settings made for z
set atom 25 x 4.609194875159386 y 2.1128013162767423 z 18.595556578865757
Setting atom values ...
  1 settings made for x
  1 settings made for y
  1 settings made for z
set atom 26 x 3.680000619556152 y 3.1864386262815083 z 18.64058982488969
Setting atom values ...
  1 settings made for x
  1 settings made for y
  1 settings made for z
set atom 27 x 5.538517051972026 y 4.796380253940351 z 18.233872481881228
Setting atom values ...
  1 settings made for x
  1 settings made for y
  1 settings made for z
set atom 28 x 4.143837679839738 y 0.7708276604394644 z 18.640601833863208
Setting atom values ...
  1 settings made for x
  1 settings made for y
  1 settings made for z
run 0
WARNING: No fixes with time integration, atoms won't move (../verlet.cpp:60)
Per MPI rank memory allocation (min/avg/max) = 7.219 | 7.219 | 7.219 Mbytes
Step Temp E_pair E_mol TotEng Press 
       0 1.1948588e-18   -205.61108            0   -205.61108   -1729.9065 
Loop time of 5.18e-07 on 1 procs for 0 steps with 28 atoms

193.1% CPU use with 1 MPI tasks x no OpenMP threads

MPI task timing breakdown:
Section |  min time  |  avg time  |  max time  |%varavg| %total
---------------------------------------------------------------
Pair    | 0          | 0          | 0          |   0.0 |  0.00
Bond    | 0          | 0          | 0          |   0.0 |  0.00
Neigh   | 0          | 0          | 0          |   0.0 |  0.00
Comm    | 0          | 0          | 0          |   0.0 |  0.00
Output  | 0          | 0          | 0          |   0.0 |  0.00
Modify  | 0          | 0          | 0          |   0.0 |  0.00
Other   |            | 5.18e-07   |            |       |100.00

Nlocal:             28 ave          28 max          28 min
Histogram: 1 0 0 0 0 0 0 0 0 0
Nghost:           1823 ave        1823 max        1823 min
Histogram: 1 0 0 0 0 0 0 0 0 0
Neighs:              0 ave           0 max           0 min
Histogram: 1 0 0 0 0 0 0 0 0 0
FullNghs:        16592 ave       16592 max       16592 min
Histogram: 1 0 0 0 0 0 0 0 0 0

Total # of neighbors = 16592
Ave neighs/atom = 592.57143
Ave special neighs/atom = 0
Neighbor list builds = 0
Dangerous builds = 0
set atom 1 x 5.0736209210381915 y 0.23489376729619865 z 14.886293735275007
Setting atom values ...
  1 settings made for x
  1 settings made for y
  1 settings made for z
set atom 2 x 0.890914568507476 y 1.0396899577766956 z 14.886310533748127
Setting atom values ...
  1 settings made for x
  1 settings made for y
  1 settings made for z
set atom 3 x 3.2145923522750226 y 1.844735478234075 z 14.516742998454344
Setting atom values ...
  1 settings made for x
  1 settings made for y
  1 settings made for z
set atom 4 x 7.862673018429151 y 3.4555871726097718 z 15.087611874390145
Setting atom values ...
  1 settings made for x
  1 settings made for y
  1 settings made for z
set atom 5 x 7.396967611479543 y 4.797492528537244 z 15.1310220543048
Setting atom values ...
  1 settings made for x
  1 settings made for y
  1 settings made for z
set atom 6 x 3.6792415653183976 y 4.259622666506803 z 14.886296126424966
Setting atom values ...
  1 settings made for x
  1 settings made for y
  1 settings made for z
set atom 7 x -0.038874129629473286 y -0.03365486247313248 z 14.870143818033586
Setting atom values ...
  1 settings made for x
  1 settings made for y
  1 settings made for z
set atom 8 x 6.002447049127388 y 5.064666462485406 z 15.08760802188964
Setting atom values ...
  1 settings made for x
  1 settings made for y
  1 settings made for z
set atom 9 x 2.28505746014653 y 0.7713168471639072 z 14.725546673168123
Setting atom values ...
  1 settings made for x
  1 settings made for y
  1 settings made for z
set atom 10 x 4.608967486959973 y 1.5764435581052485 z 14.72554073934741
Setting atom values ...
  1 settings made for x
  1 settings made for y
  1 settings made for z
set atom 11 x 6.9340336199571375 y 2.381483606775497 z 15.131039923356823
Setting atom values ...
  1 settings made for x
[...]
Step Temp E_pair E_mol TotEng Press 
       0 1.1948588e-18   -96.082529            0   -96.082529    45328.619 
Loop time of 5.39e-07 on 1 procs for 0 steps with 28 atoms

185.5% CPU use with 1 MPI tasks x no OpenMP threads

MPI task timing breakdown:
Section |  min time  |  avg time  |  max time  |%varavg| %total
---------------------------------------------------------------
Pair    | 0          | 0          | 0          |   0.0 |  0.00
Bond    | 0          | 0          | 0          |   0.0 |  0.00
Neigh   | 0          | 0          | 0          |   0.0 |  0.00
Comm    | 0          | 0          | 0          |   0.0 |  0.00
Output  | 0          | 0          | 0          |   0.0 |  0.00
Modify  | 0          | 0          | 0          |   0.0 |  0.00
Other   |            | 5.39e-07   |            |       |100.00

Nlocal:             28 ave          28 max          28 min
Histogram: 1 0 0 0 0 0 0 0 0 0
Nghost:           1830 ave        1830 max        1830 min
Histogram: 1 0 0 0 0 0 0 0 0 0
Neighs:              0 ave           0 max           0 min
Histogram: 1 0 0 0 0 0 0 0 0 0
FullNghs:        16746 ave       16746 max       16746 min
Histogram: 1 0 0 0 0 0 0 0 0 0

Total # of neighbors = 16746
Ave neighs/atom = 598.07143
Ave special neighs/atom = 0
Neighbor list builds = 0
Dangerous builds = 0
set atom 1 x 5.262319334557404 y 0.060424558231011755 z 14.91870363611868
Setting atom values ...
  1 settings made for x
  1 settings made for y
  1 settings made for z
set atom 2 x 0.9913656545522443 y 1.0552240770012669 z 14.918786081982786
Setting atom values ...
  1 settings made for x
  1 settings made for y
  1 settings made for z
set atom 3 x 3.3794212933181327 y 2.019196303155459 z 14.921501980451568
Setting atom values ...
  1 settings made for x
  1 settings made for y
  1 settings made for z
set atom 4 x 7.6379736402350495 y 3.5228742036554705 z 14.920481659029107
Setting atom values ...
  1 settings made for x
  1 settings made for y
  1 settings made for z
set atom 5 x 7.507433874164011 y 4.698142768109373 z 14.92022288507714
Setting atom values ...
  1 settings made for x
  1 settings made for y
  1 settings made for z
set atom 6 x 3.658962557984381 y 4.104000402048141 z 14.91891279418715
Setting atom values ...
  1 settings made for x
  1 settings made for y
  1 settings made for z
set atom 7 x -0.23725678028260408 y 0.0441689388779361 z 14.91762433874281
Setting atom values ...
  1 settings made for x
  1 settings made for y
  1 settings made for z
set atom 8 x 5.909863699850434 y 5.173124714123667 z 14.920434237521139
Setting atom values ...
  1 settings made for x
  1 settings made for y
  1 settings made for z
set atom 9 x 2.142597177094378 y 0.580997862881413 z 14.920045567661173
Setting atom values ...
  1 settings made for x
  1 settings made for y
  1 settings made for z
set atom 10 x 4.515034125188745 y 1.7937355442332994 z 14.920388524553294
Setting atom values ...
  1 settings made for x
  1 settings made for y
  1 settings made for z
set atom 11 x 7.0430266255593335 y 2.4222468143113134 z 14.92047525176795
Setting atom values ...
  1 settings made for x
  1 settings made for y
  1 settings made for z
set atom 12 x 2.983641652070755 y 3.157792614411704 z 14.920161294321213
Setting atom values ...
  1 settings made for x
  1 settings made for y
  1 settings made for z
set atom 13 x 5.415014219466539 y 2.62445877866948 z 14.920331272291136
Setting atom values ...
  1 settings made for x
  1 settings made for y
  1 settings made for z
set atom 14 x 5.062227163438159 y 3.9620064538962887 z 14.920270031509983
Setting atom values ...
  1 settings made for x
  1 settings made for y
  1 settings made for z
set atom 15 x 6.639606824680871 y 3.555264093566982 z 18.42852601923739
Setting atom values ...
  1 settings made for x
  1 settings made for y
  1 settings made for z
set atom 16 x 8.514266923902653 y 5.506938010780279 z 18.431321427746344
Setting atom values ...
  1 settings made for x
  1 settings made for y
  1 settings made for z
set atom 17 x 6.910326352684462 y 1.4715705942809496 z 18.431113418656537
Setting atom values ...
  1 settings made for x
  1 settings made for y
  1 settings made for z
set atom 18 x 6.238012114046666 y 2.400790821518999 z 18.429874445582623
Setting atom values ...
  1 settings made for x
  1 settings made for y
  1 settings made for z
set atom 19 x 2.1665826479857273 y 2.9366926041286456 z 18.429695586898525
Setting atom values ...
  1 settings made for x
  1 settings made for y
  1 settings made for z
set atom 20 x 7.760015017816752 y 3.7779120167298186 z 18.429636997587984
Setting atom values ...
  1 settings made for x
  1 settings made for y
  1 settings made for z
set atom 21 x 4.235912301510462 y 4.515736674562707 z 18.431246641025812
Setting atom values ...
  1 settings made for x
  1 settings made for y
  1 settings made for z
set atom 22 x -0.2340572894168683 y -0.11920643388554836 z 18.432403661675828
Setting atom values ...
  1 settings made for x
  1 settings made for y
  1 settings made for z
set atom 23 x 2.656165373760565 y 0.3869344430326148 z 18.429597184196435
Setting atom values ...
  1 settings made for x
  1 settings made for y
  1 settings made for z
set atom 24 x 1.8076352409271619 y 1.6117251196226485 z 18.42975221304362
Setting atom values ...
  1 settings made for x
  1 settings made for y
  1 settings made for z
set atom 25 x 4.385962807340627 y 2.042294354579065 z 18.429544060441415
Setting atom values ...
  1 settings made for x
  1 settings made for y
  1 settings made for z
set atom 26 x 3.78559778584063 y 3.1467954188060503 z 18.429553938858515
Setting atom values ...
  1 settings made for x
  1 settings made for y
  1 settings made for z
set atom 27 x 5.403587042431175 y 4.992249496562746 z 18.4299771690375
Setting atom values ...
  1 settings made for x
  1 settings made for y
  1 settings made for z
set atom 28 x 4.2554833340906235 y 0.8707855339459714 z 18.42980968080184
Setting atom values ...
  1 settings made for x
  1 settings made for y
  1 settings made for z
run 0
WARNING: No fixes with time integration, atoms won't move (../verlet.cpp:60)
Per MPI rank memory allocation (min/avg/max) = 7.219 | 7.219 | 7.219 Mbytes
Step Temp E_pair E_mol TotEng Press 
       0 1.1948588e-18    -123.1155            0    -123.1155    29303.305 
Loop time of 5.6e-07 on 1 procs for 0 steps with 28 atoms

178.6% CPU use with 1 MPI tasks x no OpenMP threads

MPI task timing breakdown:
Section |  min time  |  avg time  |  max time  |%varavg| %total
---------------------------------------------------------------
Pair    | 0          | 0          | 0          |   0.0 |  0.00
Bond    | 0          | 0          | 0          |   0.0 |  0.00
Neigh   | 0          | 0          | 0          |   0.0 |  0.00
Comm    | 0          | 0          | 0          |   0.0 |  0.00
Output  | 0          | 0          | 0          |   0.0 |  0.00
Modify  | 0          | 0          | 0          |   0.0 |  0.00
Other   |            | 5.6e-07    |            |       |100.00

Nlocal:             28 ave          28 max          28 min
Histogram: 1 0 0 0 0 0 0 0 0 0
Nghost:           1837 ave        1837 max        1837 min
Histogram: 1 0 0 0 0 0 0 0 0 0
Neighs:              0 ave           0 max           0 min
Histogram: 1 0 0 0 0 0 0 0 0 0
FullNghs:        16732 ave       16732 max       16732 min
Histogram: 1 0 0 0 0 0 0 0 0 0

Total # of neighbors = 16732
Ave neighs/atom = 597.57143
Ave special neighs/atom = 0
Neighbor list builds = 0
Dangerous builds = 0
set atom 1 x 5.0578948216024155 y 0.13648632338923083 z 14.91891832856343
Setting atom values ...
  1 settings made for x
  1 settings made for y
  1 settings made for z
set atom 2 x 0.8135768944438833 y 1.1026603720027899 z 14.918918513284723
Setting atom values ...
  1 settings made for x
  1 settings made for y
  1 settings made for z
set atom 3 x 3.2145200233545177 y 1.8447049225892513 z 14.921473550718973
Setting atom values ...
  1 settings made for x
  1 settings made for y
  1 settings made for z
set atom 4 x 8.01587103419662 y 3.678190419740394 z 14.920420244334647
Setting atom values ...
  1 settings made for x
  1 settings made for y
  1 settings made for z
set atom 5 x 7.645133226067875 y 4.708024523332434 z 14.920261625726681
Setting atom values ...
  1 settings made for x
  1 settings made for y
  1 settings made for z
set atom 6 x 3.77237261766524 y 4.295159628831216 z 14.918918425755479
Setting atom values ...
  1 settings made for x
  1 settings made for y
  1 settings made for z
set atom 7 x -0.038944800240064865 y -0.03367984493955507 z 14.917622267136638
Setting atom values ...
  1 settings made for x
  1 settings made for y
  1 settings made for z
set atom 8 x 5.733126147115781 y 5.085976927960922 z 14.920420276834768
Setting atom values ...
  1 settings made for x
  1 settings made for y
  1 settings made for z
set atom 9 x 2.363450289338743 y 0.6820573008462782 z 14.920375854825798
Setting atom values ...
  1 settings made for x
  1 settings made for y
  1 settings made for z
set atom 10 x 4.647214817632284 y 1.689004546869371 z 14.920375752990177
Setting atom values ...
  1 settings made for x
  1 settings made for y
  1 settings made for z
set atom 11 x 6.732504631794754 y 2.211177711154146 z 14.920261550830135
Setting atom values ...
  1 settings made for x
  1 settings made for y
  1 settings made for z
set atom 12 x 2.633191879986256 y 3.1632449477809033 z 14.920375800775114
Setting atom values ...
  1 settings made for x
  1 settings made for y
  1 settings made for z
set atom 13 x 5.655178071591978 y 2.405143985156074 z 14.920420271271816
Setting atom values ...
  1 settings made for x
  1 settings made for y
  1 settings made for z
set atom 14 x 5.026537445266687 y 4.250095470387853 z 14.920261681119868
Setting atom values ...
  1 settings made for x
  1 settings made for y
  1 settings made for z
set atom 15 x 6.467989224179665 y 3.7231560711172587 z 18.42855444600453
Setting atom values ...
  1 settings made for x
  1 settings made for y
  1 settings made for z
set atom 16 x 8.311361816810287 y 5.431378187597119 z 18.43110967328874
Setting atom values ...
  1 settings made for x
  1 settings made for y
  1 settings made for z
set atom 17 x 7.02584163697739 y 1.2727031059420957 z 18.43110957235706
Setting atom values ...
  1 settings made for x
  1 settings made for y
  1 settings made for z
set atom 18 x 5.886657065254799 y 2.4046142805935053 z 18.429652201498293
Setting atom values ...
  1 settings made for x
  1 settings made for y
  1 settings made for z
set atom 19 x 2.4017129154853074 y 3.162720251310767 z 18.429607728836594
Setting atom values ...
  1 settings made for x
  1 settings made for y
  1 settings made for z
set atom 20 x 7.90067981329105 y 3.878852198587577 z 18.429652245502258
Setting atom values ...
  1 settings made for x
  1 settings made for y
  1 settings made for z
set atom 21 x 4.067039496709485 y 4.465198862301051 z 18.431109488037098
Setting atom values ...
  1 settings made for x
  1 settings made for y
  1 settings made for z
set atom 22 x -0.03894541202694622 y -0.03363307616952584 z 18.432405731422314
Setting atom values ...
  1 settings made for x
  1 settings made for y
  1 settings made for z
set atom 23 x 2.4796540523220014 y 0.4818793113581604 z 18.42960772566914
Setting atom values ...
  1 settings made for x
  1 settings made for y
  1 settings made for z
set atom 24 x 1.77306820986028 y 1.3177621455513147 z 18.429766317228477
Setting atom values ...
  1 settings made for x
  1 settings made for y
  1 settings made for z
set atom 25 x 4.762407050606694 y 1.8896655030301128 z 18.429607756604394
Setting atom values ...
  1 settings made for x
  1 settings made for y
  1 settings made for z
set atom 26 x 3.479034930520242 y 3.3566868864390065 z 18.42976644999023
Setting atom values ...
  1 settings made for x
  1 settings made for y
  1 settings made for z
set atom 27 x 5.616920224183691 y 4.885808271119522 z 18.4296521458545
Setting atom values ...
  1 settings made for x
  1 settings made for y
  1 settings made for z
set atom 28 x 4.39167256669993 y 0.859837487812638 z 18.42976637355474
Setting atom values ...
  1 settings made for x
  1 settings made for y
  1 settings made for z
run 0
WARNING: No fixes with time integration, atoms won't move (../verlet.cpp:60)
Per MPI rank memory allocation (min/avg/max) = 7.219 | 7.219 | 7.219 Mbytes
Step Temp E_pair E_mol TotEng Press 
       0 1.1948588e-18   -138.51786            0   -138.51786    40638.091 
Loop time of 5.72e-07 on 1 procs for 0 steps with 28 atoms

174.8% CPU use with 1 MPI tasks x no OpenMP threads

MPI task timing breakdown:
Section |  min time  |  avg time  |  max time  |%varavg| %total
---------------------------------------------------------------
Pair    | 0          | 0          | 0          |   0.0 |  0.00
Bond    | 0          | 0          | 0          |   0.0 |  0.00
Neigh   | 0          | 0          | 0          |   0.0 |  0.00
Comm    | 0          | 0          | 0          |   0.0 |  0.00
Output  | 0          | 0          | 0          |   0.0 |  0.00
Modify  | 0          | 0          | 0          |   0.0 |  0.00
Other   |            | 5.72e-07   |            |       |100.00

Nlocal:             28 ave          28 max          28 min
Histogram: 1 0 0 0 0 0 0 0 0 0
Nghost:           1823 ave        1823 max        1823 min
Histogram: 1 0 0 0 0 0 0 0 0 0
Neighs:              0 ave           0 max           0 min
Histogram: 1 0 0 0 0 0 0 0 0 0
FullNghs:        16682 ave       16682 max       16682 min
Histogram: 1 0 0 0 0 0 0 0 0 0

Total # of neighbors = 16682
Ave neighs/atom = 595.78571
Ave special neighs/atom = 0
Neighbor list builds = 0
Dangerous builds = 0
set atom 1 x 5.042593542592141 y 0.08425696613526445 z 14.918776835767938
Setting atom values ...
  1 settings made for x
  1 settings made for y
  1 settings made for z
set atom 2 x 0.7760614007247348 y 1.1419881424025753 z 14.918776986789808
Setting atom values ...
  1 settings made for x
  1 settings made for y
  1 settings made for z
set atom 3 x 3.214525534009704 y 1.8447825229030688 z 14.921665606830356
Setting atom values ...
  1 settings made for x
  1 settings made for y
  1 settings made for z
set atom 4 x 8.050328322677467 y 3.610709093608661 z 14.920356735541349
Setting atom values ...
  1 settings made for x
  1 settings made for y
  1 settings made for z
set atom 5 x 7.6318165163316385 y 4.7856511864961355 z 14.920340776678797
Setting atom values ...
  1 settings made for x
  1 settings made for y
  1 settings made for z
set atom 6 x 3.8252625995809053 y 4.308028118050299 z 14.918776943356663
Setting atom values ...
  1 settings made for x
  1 settings made for y
  1 settings made for z
set atom 7 x -0.03894838432837666 y -0.03368652723896711 z 14.917693041611772
Setting atom values ...
  1 settings made for x
  1 settings made for y
  1 settings made for z
set atom 8 x 5.77428306273167 y 5.1495953275809265 z 14.920356778401924
Setting atom values ...
  1 settings made for x
  1 settings made for y
  1 settings made for z
set atom 9 x 2.4008354326499584 y 0.6490785100577965 z 14.920185913996006
Setting atom values ...
  1 settings made for x
  1 settings made for y
  1 settings made for z
set atom 10 x 4.65704102804493 y 1.737937137469141 z 14.920185917234742
Setting atom values ...
  1 settings made for x
  1 settings made for y
  1 settings made for z
set atom 11 x 6.806414202201181 y 2.183961849235513 z 14.920340656471561
Setting atom values ...
  1 settings made for x
  1 settings made for y
  1 settings made for z
set atom 12 x 2.5859667655929606 y 3.1472255534761677 z 14.920185995270872
Setting atom values ...
  1 settings made for x
  1 settings made for y
  1 settings made for z
set atom 13 x 5.579481795233216 y 2.408963009241697 z 14.920356754801153
Setting atom values ...
  1 settings made for x
  1 settings made for y
  1 settings made for z
set atom 14 x 4.965965257051822 y 4.199756408867969 z 14.920340619342111
Setting atom values ...
  1 settings made for x
  1 settings made for y
  1 settings made for z
set atom 15 x 6.468123088828081 y 3.7231738827429104 z 18.428689497946515
Setting atom values ...
  1 settings made for x
  1 settings made for y
  1 settings made for z
set atom 16 x 8.358414814253596 y 5.182084533836527 z 18.431203245929925
Setting atom values ...
  1 settings made for x
  1 settings made for y
  1 settings made for z
set atom 17 x 6.786325223254488 y 1.3565006943090605 z 18.431203366693698
Setting atom values ...
  1 settings made for x
  1 settings made for y
  1 settings made for z
set atom 18 x 6.166539670133414 y 2.3422257046214736 z 18.42981706457717
Setting atom values ...
  1 settings made for x
  1 settings made for y
  1 settings made for z
set atom 19 x 2.2446373792409386 y 2.6772844503833264 z 18.429553404995303
Setting atom values ...
  1 settings made for x
  1 settings made for y
  1 settings made for z
set atom 20 x 7.814566883730758 y 4.152497089998037 z 18.429816984722272
Setting atom values ...
  1 settings made for x
  1 settings made for y
  1 settings made for z
set atom 21 x 4.259294629867069 y 4.630851015445454 z 18.431203402522566
Setting atom values ...
  1 settings made for x
  1 settings made for y
  1 settings made for z
set atom 22 x -0.038798172232976415 y -0.033684545725341554 z 18.432472405491225
Setting atom values ...
  1 settings made for x
  1 settings made for y
  1 settings made for z
set atom 23 x 2.978529049222261 y 0.5883140382386026 z 18.429553427126237
Setting atom values ...
  1 settings made for x
  1 settings made for y
  1 settings made for z
set atom 24 x 1.9275322478702277 y 1.785284594387925 z 18.429723026717532
Setting atom values ...
  1 settings made for x
  1 settings made for y
  1 settings made for z
set atom 25 x 4.420699042551252 y 2.268500260267698 z 18.429553388294195
Setting atom values ...
  1 settings made for x
  1 settings made for y
  1 settings made for z
set atom 26 x 3.8065553143355824 y 2.98909158087606 z 18.4297230667953
Setting atom values ...
  1 settings made for x
  1 settings made for y
  1 settings made for z
set atom 27 x 5.4230045637942945 y 4.674686649657958 z 18.42981697894765
Setting atom values ...
  1 settings made for x
  1 settings made for y
  1 settings made for z
set atom 28 x 3.9096699260763126 y 0.7598194779053156 z 18.429723177156383
Setting atom values ...
  1 settings made for x
  1 settings made for y
  1 settings made for z
run 0
WARNING: No fixes with time integration, atoms won't move (../verlet.cpp:60)
Per MPI rank memory allocation (min/avg/max) = 7.219 | 7.219 | 7.219 Mbytes
Step Temp E_pair E_mol TotEng Press 
       0 1.1948588e-18   -92.862456            0   -92.862456    53795.389 
Loop time of 5.68e-07 on 1 procs for 0 steps with 28 atoms

176.1% CPU use with 1 MPI tasks x no OpenMP threads

MPI task timing breakdown:
Section |  min time  |  avg time  |  max time  |%varavg| %total
---------------------------------------------------------------
Pair    | 0          | 0          | 0          |   0.0 |  0.00
Bond    | 0          | 0          | 0          |   0.0 |  0.00
Neigh   | 0          | 0          | 0          |   0.0 |  0.00
Comm    | 0          | 0          | 0          |   0.0 |  0.00
Output  | 0          | 0          | 0          |   0.0 |  0.00
Modify  | 0          | 0          | 0          |   0.0 |  0.00
Other   |            | 5.68e-07   |            |       |100.00

Nlocal:             28 ave          28 max          28 min
Histogram: 1 0 0 0 0 0 0 0 0 0
Nghost:           1837 ave        1837 max        1837 min
Histogram: 1 0 0 0 0 0 0 0 0 0
Neighs:              0 ave           0 max           0 min
Histogram: 1 0 0 0 0 0 0 0 0 0
FullNghs:        16766 ave       16766 max       16766 min
Histogram: 1 0 0 0 0 0 0 0 0 0

Total # of neighbors = 16766
Ave neighs/atom = 598.78571
Ave special neighs/atom = 0
Neighbor list builds = 0
Dangerous builds = 0
Total wall time: 0:00:00
