LAMMPS data file via write_data, version 18 Jun 2019, timestep = 3359

5044 atoms
1 atom types

-5.2285095960775785e-01 8.6812831959607237e+01 xlo xhi
-4.5280222166558998e-01 7.5182119221665161e+01 ylo yhi
0.0000000000000000e+00 1.8349999900000000e+02 zlo zhi
4.3667841965666732e+01 0.0000000000000000e+00 0.0000000000000000e+00 xy xz yz

Masses

1 12.011

Atoms # molecular

1 1 1 8.5393687386504936e+01 -4.2353512336358101e-01 1.4864052033231834e+01 -1 1 0
2 1 1 2.1255978756664984e-01 7.6249566508932110e-01 1.4864052077200148e+01 0 1 0
3 1 1 1.2685698673571299e+02 7.1566252069836935e+01 1.4866159524670049e+01 -1 0 0
4 1 1 1.2901140023368751e+02 7.2752461988742596e+01 1.4864532455832366e+01 -1 0 0
5 1 1 1.2832664230243455e+02 7.3996395214017440e+01 1.4864368205679360e+01 -1 0 0
6 1 1 4.3830256886972442e+01 7.3938502050435901e+01 1.4864051909730119e+01 0 0 0
7 1 1 -5.2234023598034773e-01 -4.5248628937103241e-01 1.4863899649695515e+01 0 1 0
8 1 1 4.5984812284004029e+01 7.5124551077950329e+01 1.4864532548386670e+01 0 0 0
9 1 1 1.6322139554135386e+00 7.3356035109174234e-01 1.4864369293014091e+01 0 1 0
10 1 1 4.4714441132581557e+00 6.7587547785177704e-01 1.4866157873120656e+01 0 1 0
11 1 1 1.2465392168023328e+02 6.7920041154471477e+01 1.4872824177760592e+01 -1 0 0
12 1 1 1.2680740136627108e+02 6.9107106708942624e+01 1.4868646324412778e+01 -1 0 0
13 1 1 1.2612252176059269e+02 7.0351000890696909e+01 1.4867790844474372e+01 -1 0 0
14 1 1 4.1625799387996231e+01 7.0293510006302625e+01 1.4866157504291557e+01 0 0 0
15 1 1 1.2827663020835377e+02 7.1537402953767170e+01 1.4865404847471616e+01 -1 0 0
16 1 1 4.3780205198318065e+01 7.1479620669094757e+01 1.4865046064045002e+01 0 0 0
17 1 1 4.3095371088135821e+01 7.2723513061179347e+01 1.4864369067654247e+01 0 0 0
18 1 1 4.5934744502478331e+01 7.2665679778032512e+01 1.4865046806804736e+01 0 0 0
19 1 1 4.5249913571547488e+01 7.3909566708272664e+01 1.4864368117142359e+01 0 0 0
20 1 1 4.8089306943919723e+01 7.3851879223597265e+01 1.4866159526636858e+01 0 0 0
21 1 1 4.7404469332984718e+01 7.5095751068981997e+01 1.4865404998677008e+01 0 0 0
22 1 1 5.0243781851339527e+01 7.5038509749907959e+01 1.4868646616902723e+01 0 0 0
23 1 1 5.8910962095903239e+00 6.4743579538374263e-01 1.4867786579640248e+01 0 1 0
24 1 1 8.7301558823366694e+00 5.9108100673544106e-01 1.4872801888527924e+01 0 1 0
25 1 1 1.2245478835887182e+02 6.4271246799240316e+01 1.4884540777046647e+01 -1 0 0
26 1 1 1.2460613634338617e+02 6.5460147588285167e+01 1.4877918452332489e+01 -1 0 0
27 1 1 1.2392088303593813e+02 6.6703928597882097e+01 1.4876239057520191e+01 -1 0 0
28 1 1 3.9423009096620056e+01 6.6647754568605606e+01 1.4872801278572551e+01 0 0 0
29 1 1 1.2607350714036062e+02 6.7891527821868252e+01 1.4871146702604859e+01 -1 0 0
30 1 1 4.1576473563342105e+01 6.7834507549071915e+01 1.4869324743782302e+01 0 0 0
31 1 1 4.0891343801018387e+01 6.9078275025356405e+01 1.4867786128166125e+01 0 0 0
32 1 1 4.3730536716531986e+01 6.9020800024869814e+01 1.4867374419839653e+01 0 0 0
33 1 1 4.3045448729415661e+01 7.0264564976941060e+01 1.4865968241882566e+01 0 0 0
34 1 1 4.5884933662745560e+01 7.0206934405136366e+01 1.4866750325878987e+01 0 0 0
35 1 1 4.5199866143776788e+01 7.1450692132301910e+01 1.4865403990869849e+01 0 0 0
36 1 1 4.8039482663565536e+01 7.1393153249539864e+01 1.4867371849583545e+01 0 0 0
37 1 1 4.7354411542249487e+01 7.2636890592620006e+01 1.4865967534014292e+01 0 0 0
38 1 1 5.0194063400816461e+01 7.2579737578993431e+01 1.4869335035208884e+01 0 0 0
39 1 1 4.9508977819759899e+01 7.3823439501351757e+01 1.4867790906589011e+01 0 0 0
40 1 1 5.2348550580384263e+01 7.3767074488051179e+01 1.4872824375177261e+01 0 0 0
41 1 1 5.1663451199326737e+01 7.5010728214110017e+01 1.4871147069708917e+01 0 0 0
42 1 1 5.4502773389663787e+01 7.4955638125365340e+01 1.4877918947921206e+01 0 0 0
43 1 1 1.0149813418987723e+01 5.6430856827109510e-01 1.4876197704090858e+01 0 1 0
44 1 1 1.2988681375736634e+01 5.1099202223573514e-01 1.4884449298595140e+01 0 1 0
45 1 1 1.2026194525993716e+02 6.0618480745634542e+01 1.4898939065106019e+01 -1 0 0
46 1 1 1.2241019028302881e+02 6.1810037014875959e+01 1.4891346190909651e+01 -1 0 0
47 1 1 1.2172427760621167e+02 6.3053625949491050e+01 1.4889213120499180e+01 -1 0 0
48 1 1 3.7224386789569870e+01 6.2999807746598478e+01 1.4884448545644814e+01 0 0 0
49 1 1 1.2387425791801208e+02 6.4243376528208231e+01 1.4882069000968372e+01 -1 0 0
50 1 1 3.9375726167592823e+01 6.4188138660860304e+01 1.4878678143460352e+01 0 0 0
51 1 1 3.8689994585699530e+01 6.5431681300549812e+01 1.4876197031654504e+01 0 0 0
52 1 1 4.1528269945239686e+01 6.5375426646631652e+01 1.4874309960983421e+01 0 0 0
53 1 1 4.0842608711909328e+01 6.6618948767272286e+01 1.4871869203700339e+01 0 0 0
54 1 1 4.3681715672852249e+01 6.6562061909655412e+01 1.4871430834855826e+01 0 0 0
55 1 1 4.2996114839644839e+01 6.7805571465575767e+01 1.4869112262300350e+01 0 0 0
56 1 1 4.5835763852850782e+01 6.7748385742855291e+01 1.4870003628512455e+01 0 0 0
57 1 1 4.5150203842357477e+01 6.8991882627488749e+01 1.4867789611366334e+01 0 0 0
58 1 1 4.7990163320122356e+01 6.8934697502068261e+01 1.4869992001949688e+01 0 0 0
59 1 1 4.7304616282803742e+01 7.0178170738750140e+01 1.4867784302853989e+01 0 0 0
60 1 1 5.0144732647466689e+01 7.0121308725456558e+01 1.4871420038246789e+01 0 0 0
61 1 1 4.9459176657186568e+01 7.1364741705339881e+01 1.4869112523856325e+01 0 0 0
62 1 1 5.2299336380347128e+01 7.1308592251980912e+01 1.4874342121176214e+01 0 0 0
63 1 1 5.1613765642907481e+01 7.2551970278964646e+01 1.4871895616984874e+01 0 0 0
64 1 1 5.4453836422466530e+01 7.2496989082839647e+01 1.4878764948861438e+01 0 0 0
65 1 1 5.3768254262531599e+01 7.3740300786455549e+01 1.4876239320245899e+01 0 0 0
66 1 1 5.6608065597862314e+01 7.3686966664666159e+01 1.4884541147142107e+01 0 0 0
67 1 1 5.5922467278964490e+01 7.4930198501395893e+01 1.4882069542866248e+01 0 0 0
68 1 1 5.8761834612778848e+01 7.4878948780409758e+01 1.4891346789758380e+01 0 0 0
69 1 1 1.4408351670035588e+01 4.8715916852018376e-01 1.4889082188131701e+01 0 1 0
70 1 1 1.7247114542193778e+01 4.3833565129426882e-01 1.4898751764084711e+01 0 1 0
71 1 1 1.1807668117685503e+02 5.6961034994994016e+01 1.4912775362586100e+01 -1 0 0
72 1 1 1.2022142570220763e+02 5.8155627890032818e+01 1.4905807055576394e+01 -1 0 0
73 1 1 1.1953464140217731e+02 5.9398967596290966e+01 1.4903752835829742e+01 -1 0 0
74 1 1 3.5032247318649880e+01 5.9348224601112356e+01 1.4898750992120426e+01 0 0 0
75 1 1 1.2168125932485491e+02 6.0591532980800530e+01 1.4896212664654060e+01 -1 0 0
76 1 1 3.7180502134680900e+01 6.0538998570397965e+01 1.4892015362873487e+01 0 0 0
77 1 1 3.6493911593113545e+01 6.1782253675424606e+01 1.4889081419411220e+01 0 0 0
78 1 1 3.9330404213928340e+01 6.1728224046873713e+01 1.4886001711142908e+01 0 0 0
79 1 1 3.8643878424202740e+01 6.2971420785837523e+01 1.4882810973580517e+01 0 0 0
80 1 1 4.1481760435195532e+01 6.2916239784137495e+01 1.4881037559780244e+01 0 0 0
81 1 1 4.0795295179427178e+01 6.4159386566470829e+01 1.4877751167714917e+01 0 0 0
82 1 1 4.3634307187866398e+01 6.4103408733260409e+01 1.4877344448401805e+01 0 0 0
83 1 1 4.2947900600363624e+01 6.5346519207486679e+01 1.4874094455559755e+01 0 0 0
84 1 1 4.5787747547078403e+01 6.5290084837728003e+01 1.4875053753952054e+01 0 0 0
85 1 1 4.5101390756670007e+01 6.6533166910177016e+01 1.4871892951495997e+01 0 0 0
86 1 1 4.7941795207628068e+01 6.6476605333259613e+01 1.4874250978014327e+01 0 0 0
87 1 1 4.7255469064223007e+01 6.7719655897592872e+01 1.4871144459049406e+01 0 0 0
88 1 1 5.0096205825486642e+01 6.7663322093086791e+01 1.4875001119588248e+01 0 0 0
89 1 1 4.9409889375220438e+01 6.8906330221381481e+01 1.4871868750194983e+01 0 0 0
90 1 1 5.2250792093367245e+01 6.8850625896206409e+01 1.4877313026399307e+01 0 0 0
91 1 1 5.1564475065376449e+01 7.0093579151654993e+01 1.4874096341993386e+01 0 0 0
92 1 1 5.4405404682332296e+01 7.0038945225195647e+01 1.4881111796887383e+01 0 0 0
93 1 1 5.3719090518825510e+01 7.1281835278612135e+01 1.4877828136807961e+01 0 0 0
94 1 1 5.6559897274730154e+01 7.1228729821498050e+01 1.4886205217924612e+01 0 0 0
95 1 1 5.5873592989965282e+01 7.2471549065684286e+01 1.4882955789599730e+01 0 0 0
96 1 1 5.8714110505651291e+01 7.2420399742186063e+01 1.4892277276145663e+01 0 0 0
97 1 1 5.8027811550249794e+01 7.3663136408577188e+01 1.4889213528040955e+01 0 0 0
98 1 1 6.0867875031534211e+01 7.3614292348498722e+01 1.4898939522011672e+01 0 0 0
99 1 1 6.0181555555313082e+01 7.4856928281918698e+01 1.4896213274244493e+01 0 0 0
100 1 1 6.3021027703720840e+01 7.4810628166736208e+01 1.4905807670715470e+01 0 0 0
101 1 1 1.8666796824935481e+01 4.1821771321644968e-01 1.4903531939231481e+01 0 1 0
102 1 1 2.1505592741316786e+01 3.7457525604204150e-01 1.4912564909943065e+01 0 1 0
103 1 1 2.3657164465363412e+01 1.5759416295086046e+00 1.4918990235614027e+01 0 1 0
104 1 1 1.1589904782442433e+02 5.3298982306729371e+01 1.4924005064855820e+01 -1 0 0
105 1 1 1.1804044496604762e+02 5.4496533547152318e+01 1.4918533719402614e+01 -1 0 0
106 1 1 1.1735269289143410e+02 5.5739589747143349e+01 1.4916864657720213e+01 -1 0 0
107 1 1 3.2847789415496514e+01 5.5692154472367847e+01 1.4912564175414971e+01 0 0 0
108 1 1 1.1949583010822838e+02 5.6935178655980863e+01 1.4910331116447654e+01 -1 0 0
109 1 1 3.4992564988360037e+01 5.6885851510572742e+01 1.4906323948927522e+01 0 0 0
110 1 1 3.4304983315579101e+01 5.8128802707622206e+01 1.4903531179106134e+01 0 0 0
111 1 1 3.7139138174887911e+01 5.8077732450662538e+01 1.4900116287880014e+01 0 0 0
112 1 1 3.6451587656131750e+01 5.9320586396659209e+01 1.4896820300793877e+01 0 0 0
113 1 1 3.9287475027659205e+01 5.9267999312561408e+01 1.4894269661693851e+01 0 0 0
114 1 1 3.8599943686389302e+01 6.0510749420899486e+01 1.4890582801728801e+01 0 0 0
115 1 1 4.1437451968306803e+01 6.0456924431818827e+01 1.4889093427153139e+01 0 0 0
116 1 1 4.0749940865413699e+01 6.1699580112139152e+01 1.4885167851898990e+01 0 0 0
117 1 1 4.3588862447959585e+01 6.1644825681731540e+01 1.4884861117666690e+01 0 0 0
118 1 1 4.2901379412037713e+01 6.2887405274306182e+01 1.4880849311488266e+01 0 0 0
119 1 1 4.5741439074088277e+01 6.2832044519160959e+01 1.4881816559442315e+01 0 0 0
120 1 1 4.5053991771339611e+01 6.4074565091254172e+01 1.4877823919339400e+01 0 0 0
121 1 1 4.7894893604461039e+01 6.4018932732281399e+01 1.4880177559351710e+01 0 0 0
122 1 1 4.7207480984439520e+01 6.5261403441460601e+01 1.4876236052086096e+01 0 0 0
123 1 1 5.0048948982624175e+01 6.5205868028160864e+01 1.4880110852224313e+01 0 0 0
124 1 1 4.9361563812213049e+01 6.6448289709768275e+01 1.4876196308624477e+01 0 0 0
125 1 1 5.2203361253897448e+01 6.6393270407647279e+01 1.4881678632046237e+01 0 0 0
126 1 1 5.1515999927739635e+01 6.7635638720865643e+01 1.4877753443383806e+01 0 0 0
127 1 1 5.4357937069757121e+01 6.7581579588986472e+01 1.4884794761394879e+01 0 0 0
128 1 1 5.3670605659320223e+01 6.8823892889137198e+01 1.4880855188073435e+01 0 0 0
129 1 1 5.6512518300695795e+01 6.8771240858061290e+01 1.4889227049405017e+01 0 0 0
130 1 1 5.5825230643774162e+01 7.0013500216233751e+01 1.4885332837373932e+01 0 0 0
131 1 1 5.8666957535084215e+01 6.9962674460405367e+01 1.4894623880325833e+01 0 0 0
132 1 1 5.7979723694964441e+01 7.1204876265454544e+01 1.4890893950532178e+01 0 0 0
133 1 1 6.0821106747382068e+01 7.1156225728949693e+01 1.4900582506079441e+01 0 0 0
134 1 1 6.0133922088057552e+01 7.2398360166359097e+01 1.4897163099106615e+01 0 0 0
135 1 1 6.2974816933922959e+01 7.2352134338474670e+01 1.4906729307330556e+01 0 0 0
136 1 1 6.2287656311907270e+01 7.3594185533921106e+01 1.4903753303473671e+01 0 0 0
137 1 1 6.5127947658158519e+01 7.3550521573692933e+01 1.4912775842712973e+01 0 0 0
138 1 1 6.4440765544437554e+01 7.4792468791804595e+01 1.4910331724480187e+01 0 0 0
139 1 1 6.7280386375756606e+01 7.4751391185786673e+01 1.4918534314111813e+01 0 0 0
140 1 1 2.2925278479001935e+01 3.5828836901471300e-01 1.4916655997776314e+01 0 1 0
141 1 1 2.5764220876319033e+01 3.1972341430982204e-01 1.4923899348376210e+01 0 1 0
142 1 1 2.5076795595383565e+01 1.5613850545776358e+00 1.4922573022193383e+01 0 1 0
143 1 1 2.7915113491918344e+01 1.5251843408648624e+00 1.4928805082220913e+01 0 1 0
144 1 1 1.1372823783343524e+02 4.9632943951943695e+01 1.4932162445479291e+01 -1 0 0
145 1 1 1.1586676032616421e+02 5.0833058099190964e+01 1.4928305489863943e+01 -1 0 0
146 1 1 1.1517805141627760e+02 5.2075818187278990e+01 1.4927068690328692e+01 -1 0 0
147 1 1 3.0670971609565655e+01 5.2031500210315762e+01 1.4923898666508247e+01 0 0 0
148 1 1 1.1731804693560147e+02 5.3274237570047653e+01 1.4922132967131191e+01 -1 0 0
149 1 1 3.2812416843659868e+01 5.3228155451821593e+01 1.4918989417265477e+01 0 0 0
150 1 1 3.2123841483520074e+01 5.4470814061733918e+01 1.4916655283526799e+01 0 0 0
151 1 1 3.4955556083222767e+01 5.4422988297521364e+01 1.4913711123243495e+01 0 0 0
152 1 1 3.4266964989184324e+01 5.5665524972327134e+01 1.4910796379143482e+01 0 0 0
153 1 1 3.7100482889352506e+01 5.5616049821603198e+01 1.4908269818657022e+01 0 0 0
154 1 1 3.6411847920981096e+01 5.6858436951688056e+01 1.4904803805542926e+01 0 0 0
155 1 1 3.9247222453426708e+01 5.6807474561547920e+01 1.4902908754794085e+01 0 0 0
156 1 1 3.8558533756043396e+01 5.8049702655986017e+01 1.4898971718202299e+01 0 0 0
157 1 1 4.1395718441814836e+01 5.7997466615995450e+01 1.4897879445859036e+01 0 0 0
158 1 1 4.0706981446669616e+01 5.9239544017785356e+01 1.4893597075925349e+01 0 0 0
159 1 1 4.3545828610990071e+01 5.9186287150822828e+01 1.4893441862004707e+01 0 0 0
160 1 1 4.2857060176048215e+01 6.0428234869910767e+01 1.4888959126704483e+01 0 0 0
161 1 1 4.5697332310511008e+01 6.0374244433330240e+01 1.4889880822299151e+01 0 0 0
162 1 1 4.5008557871549662e+01 6.1616087832541730e+01 1.4885324149785990e+01 0 0 0
163 1 1 4.7849962766362893e+01 6.1561682814815519e+01 1.4887502911576510e+01 0 0 0
164 1 1 4.7161204648571399e+01 6.2803444136612185e+01 1.4882951008343689e+01 0 0 0
165 1 1 5.0003440339149627e+01 6.2748986698198351e+01 1.4886586474178644e+01 0 0 0
166 1 1 4.9314712675015691e+01 6.3990681702735415e+01 1.4882068188388835e+01 0 0 0
167 1 1 5.2157490706524975e+01 6.3936593174357427e+01 1.4887295424018017e+01 0 0 0
168 1 1 5.1468806727814716e+01 6.5178231476417523e+01 1.4882814468450761e+01 0 0 0
169 1 1 5.4311869921628201e+01 6.5124966115135621e+01 1.4889613512562976e+01 0 0 0
170 1 1 5.3623246397937983e+01 6.6366555412242505e+01 1.4885176132236740e+01 0 0 0
171 1 1 5.6466381653817521e+01 6.6314560796632719e+01 1.4893329713918440e+01 0 0 0
172 1 1 5.5777841686178697e+01 6.7556113174736325e+01 1.4888972434202493e+01 0 0 0
173 1 1 5.8620865937913059e+01 6.7505805391091556e+01 1.4898072607442842e+01 0 0 0
174 1 1 5.7932432615027096e+01 6.8747331237118075e+01 1.4893875585697009e+01 0 0 0
175 1 1 6.0775181333201715e+01 6.8699061970027230e+01 1.4903397278287336e+01 0 0 0
176 1 1 6.0086866724419558e+01 6.9940561231055966e+01 1.4899476045889648e+01 0 0 0
177 1 1 6.2929193901031972e+01 6.9894586931712041e+01 1.4908891154366895e+01 0 0 0
178 1 1 6.2240993688084252e+01 7.1136051580435634e+01 1.4905371312897161e+01 0 0 0
179 1 1 6.5082774722399506e+01 7.1092522572332769e+01 1.4914252623772162e+01 0 0 0
180 1 1 6.4394665171965272e+01 7.2333938856539376e+01 1.4911238762006674e+01 0 0 0
181 1 1 6.7235805533878249e+01 7.2292902329053007e+01 1.4919313176657194e+01 0 0 0
182 1 1 6.6547744395923004e+01 7.3534252177762824e+01 1.4916865134089324e+01 0 0 0
183 1 1 6.9388194641058305e+01 7.3495662663441223e+01 1.4924005535819465e+01 0 0 0
184 1 1 6.8700124751533551e+01 7.4736924335595901e+01 1.4922133546662725e+01 0 0 0
185 1 1 7.1539891164863107e+01 7.4700663314125293e+01 1.4928306045047943e+01 0 0 0
186 1 1 2.7183900767928243e+01 3.0688955582912231e-01 1.4926983424805442e+01 0 1 0
187 1 1 3.0023049302505942e+01 2.7278284511246126e-01 1.4932186757999089e+01 0 1 0
188 1 1 2.9334741421961155e+01 1.5137865865795246e+00 1.4931366032734951e+01 0 1 0
189 1 1 3.2173396123169745e+01 1.4816054249618085e+00 1.4935610023854071e+01 0 1 0
190 1 1 1.1156300901724987e+02 4.5963807265755406e+01 1.4937564843807511e+01 -1 0 0
191 1 1 1.1369927690001121e+02 4.7165902440908027e+01 1.4935089842529843e+01 -1 0 0
192 1 1 1.1300970832573213e+02 4.8408384094058931e+01 1.4934265748349841e+01 -1 0 0
193 1 1 2.8500905105439546e+01 4.8366716851374122e+01 1.4932186142163099e+01 0 0 0
194 1 1 1.1514711361959077e+02 4.9609188943484597e+01 1.4930882742047860e+01 -1 0 0
195 1 1 3.0639484636369176e+01 4.9566042034473156e+01 1.4928804342074361e+01 0 0 0
196 1 1 2.9950017041050440e+01 5.0808438340329573e+01 1.4926982768360521e+01 0 0 0
197 1 1 3.2779524681082378e+01 5.0763733159704849e+01 1.4924941400291148e+01 0 0 0
198 1 1 3.2089994754619035e+01 5.2005997188954900e+01 1.4922572233951216e+01 0 0 0
199 1 1 3.4921180787393361e+01 5.1959720273206024e+01 1.4920661214354881e+01 0 0 0
200 1 1 3.4231540011732747e+01 5.3201807615546024e+01 1.4917732622108121e+01 0 0 0
201 1 1 3.7064572228075079e+01 5.3154009287641557e+01 1.4916092997188025e+01 0 0 0
202 1 1 3.6374792537353450e+01 5.4395889707485196e+01 1.4912620907196384e+01 0 0 0
203 1 1 3.9209768385828646e+01 5.4346676568027775e+01 1.4911405766522634e+01 0 0 0
204 1 1 3.8519841079716805e+01 5.5588337235517081e+01 1.4907444417024964e+01 0 0 0
205 1 1 4.1356770779794985e+01 5.5537861319510199e+01 1.4906784748437081e+01 0 0 0
206 1 1 4.0666704385945735e+01 5.6779308066806365e+01 1.4902428552151751e+01 0 0 0
207 1 1 4.3505500474969637e+01 5.6727762827734715e+01 1.4902441314483671e+01 0 0 0
208 1 1 4.2815318960300857e+01 5.7969017368807911e+01 1.4897810388890512e+01 0 0 0
209 1 1 4.5655791514554174e+01 5.7916641874177387e+01 1.4898644590059483e+01 0 0 0
210 1 1 4.4965536635420996e+01 5.9157735296601025e+01 1.4893858440448106e+01 0 0 0
211 1 1 4.7807414518376682e+01 5.9104815606190471e+01 1.4895730937605560e+01 0 0 0
212 1 1 4.7117132273609961e+01 6.0345781354314617e+01 1.4890884465480596e+01 0 0 0
213 1 1 4.9960107064187504e+01 6.0292658255865739e+01 1.4894055278768652e+01 0 0 0
214 1 1 4.9269836522787948e+01 6.1533527196417140e+01 1.4889210651998193e+01 0 0 0
215 1 1 5.2113593879224773e+01 6.1480605984339590e+01 1.4893888690057851e+01 0 0 0
216 1 1 5.1423370045448756e+01 6.2721404440884605e+01 1.4889085639999500e+01 0 0 0
217 1 1 5.4267601207427482e+01 6.2669139325638874e+01 1.4895322744572226e+01 0 0 0
218 1 1 5.3577459467893050e+01 6.3909888168341027e+01 1.4890593424458434e+01 0 0 0
219 1 1 5.6421887519995643e+01 6.3858733844415767e+01 1.4898231947334404e+01 0 0 0
220 1 1 5.5731864243431808e+01 6.5099455742159904e+01 1.4893615041532064e+01 0 0 0
221 1 1 5.8576258504177723e+01 6.5049832960396131e+01 1.4902282526319180e+01 0 0 0
222 1 1 5.7886391500532383e+01 6.6290553507104590e+01 1.4897835551443587e+01 0 0 0
223 1 1 6.0730559589566695e+01 6.6242820005431241e+01 1.4907010730180637e+01 0 0 0
224 1 1 6.0040879275609939e+01 6.7483557490288973e+01 1.4902815008730290e+01 0 0 0
225 1 1 6.2884660552241471e+01 6.7437981205305107e+01 1.4911946501804666e+01 0 0 0
226 1 1 6.2195180501760710e+01 6.8678738053342954e+01 1.4908100052858959e+01 0 0 0
227 1 1 6.5038443615541993e+01 6.8635481044934551e+01 1.4916728239947764e+01 0 0 0
228 1 1 6.4349160358844131e+01 6.9876250824506840e+01 1.4913327756946295e+01 0 0 0
229 1 1 6.7191799824697213e+01 6.9835374451151779e+01 1.4921160497964570e+01 0 0 0
230 1 1 6.6502691966416322e+01 7.1076145038631296e+01 1.4918278666476873e+01 0 0 0
231 1 1 6.9344632251265836e+01 7.1037624963764486e+01 1.4925196028472904e+01 0 0 0
232 1 1 6.8655661508633784e+01 7.2278380166242343e+01 1.4922864423551262e+01 0 0 0
233 1 1 7.1496869781841781e+01 7.2242123975818274e+01 1.4928858556913479e+01 0 0 0
234 1 1 7.0807984025936236e+01 7.3482843722443590e+01 1.4927069148104357e+01 0 0 0
235 1 1 7.3648481658385819e+01 7.3448705734468945e+01 1.4932162881541663e+01 0 0 0
236 1 1 7.2959616285839274e+01 7.4689365738979603e+01 1.4930883273619949e+01 0 0 0
237 1 1 7.5799482548289077e+01 7.4657145876925384e+01 1.4935090337249527e+01 0 0 0
238 1 1 3.1442719222414851e+01 2.6279676842291239e-01 1.4934278411244206e+01 0 1 0
239 1 1 3.4282087929053439e+01 2.3224248006575737e-01 1.4937614764878317e+01 0 1 0
240 1 1 3.3593025464052502e+01 1.4726967320769928e+00 1.4937223786662754e+01 0 1 0
241 1 1 3.6432073972067741e+01 1.4435138414571400e+00 1.4939725215919093e+01 0 1 0
242 1 1 1.0940180733945593e+02 4.2292614253345498e+01 1.4940660664539866e+01 -1 0 0
243 1 1 1.1153655144603127e+02 4.3495983879586610e+01 1.4939275683226365e+01 -1 0 0
244 1 1 1.1084630016635163e+02 4.4738235071760158e+01 1.4938855817436290e+01 -1 0 0
245 1 1 2.6336276359218015e+01 4.4698551357581003e+01 1.4937614221340361e+01 0 0 0
246 1 1 1.1298179283866322e+02 4.5940808032211947e+01 1.4936753873836759e+01 -1 0 0
247 1 1 2.8472602390302193e+01 4.5900050524453206e+01 1.4935609365790922e+01 0 0 0
248 1 1 2.7782421811936690e+01 4.7142239715719938e+01 1.4934277826118704e+01 0 0 0
249 1 1 3.0610081487251648e+01 4.7100252087550295e+01 1.4933193516881124e+01 0 0 0
250 1 1 2.9919799798770097e+01 4.8342307116853654e+01 1.4931365326004455e+01 0 0 0
251 1 1 3.2748918966475074e+01 4.8298981361758180e+01 1.4930324386520430e+01 0 0 0
252 1 1 3.2058466476666673e+01 4.9540845183727278e+01 1.4927983961816363e+01 0 0 0
253 1 1 3.4889282919730022e+01 4.9496133048654841e+01 1.4927010736779064e+01 0 0 0
254 1 1 3.4198610701673559e+01 5.0737761004973777e+01 1.4924156889978148e+01 0 0 0
255 1 1 3.7031304509290585e+01 5.0691676439655474e+01 1.4923323234325968e+01 0 0 0
256 1 1 3.6340384887612231e+01 5.1933037422322052e+01 1.4919972257645398e+01 0 0 0
257 1 1 3.9175079722329855e+01 5.1885641619428554e+01 1.4919376887196918e+01 0 0 0
258 1 1 3.8483904762550338e+01 5.3126720299417720e+01 1.4915569368063991e+01 0 0 0
259 1 1 4.1320654266927242e+01 5.3078110767441686e+01 1.4915304810049145e+01 0 0 0
260 1 1 4.0629234339369866e+01 5.4318910180416353e+01 1.4911109096973229e+01 0 0 0
261 1 1 4.3468004821929398e+01 5.4269222283446254e+01 1.4911264878622285e+01 0 0 0
262 1 1 4.2776368814923735e+01 5.5509763013740738e+01 1.4906770883924514e+01 0 0 0
263 1 1 4.5617020404753326e+01 5.5459181432710814e+01 1.4907481066618580e+01 0 0 0
264 1 1 4.4925223337262196e+01 5.6699497378087408e+01 1.4902784314157699e+01 0 0 0
265 1 1 4.7767517948928422e+01 5.6648263333952237e+01 1.4904271542646534e+01 0 0 0
266 1 1 4.7075626464844156e+01 5.7888396076605837e+01 1.4899457357590864e+01 0 0 0
267 1 1 4.9919266712325374e+01 5.7836816068674246e+01 1.4902017797645323e+01 0 0 0
268 1 1 4.9227344197120267e+01 5.9076809014810507e+01 1.4897155379721896e+01 0 0 0
269 1 1 5.2072006478770952e+01 5.9025261381636440e+01 1.4901067448919793e+01 0 0 0
270 1 1 5.1380111687859660e+01 6.0265156638612005e+01 1.4896215038526707e+01 0 0 0
271 1 1 5.4225463195665064e+01 6.0214078355996364e+01 1.4901620126928583e+01 0 0 0
272 1 1 5.3533653164886054e+01 6.1453913340365105e+01 1.4896831795014380e+01 0 0 0
273 1 1 5.6379365726203503e+01 6.1403759485022221e+01 1.4903663351511801e+01 0 0 0
274 1 1 5.5687695751323275e+01 6.2643569026176699e+01 1.4898993202537639e+01 0 0 0
275 1 1 5.8533478615939202e+01 6.2594770129524996e+01 1.4906956360774084e+01 0 0 0
276 1 1 5.7842001698744674e+01 6.3834591141043560e+01 1.4902460755171393e+01 0 0 0
277 1 1 6.0687614959024152e+01 6.3787516767435065e+01 1.4911072179296163e+01 0 0 0
278 1 1 5.9996380354342769e+01 6.5027386265508909e+01 1.4906813114162089e+01 0 0 0
279 1 1 6.2841631641325414e+01 6.4982318589690180e+01 1.4915510520430994e+01 0 0 0
280 1 1 6.2150675140774325e+01 6.6222261042308901e+01 1.4911557356443110e+01 0 0 0
281 1 1 6.4995413497329807e+01 6.6179379510423956e+01 1.4919835480259879e+01 0 0 0
282 1 1 6.4304750039720361e+01 6.7419398591340880e+01 1.4916260982085872e+01 0 0 0
283 1 1 6.7148860072615534e+01 6.7378778877225841e+01 1.4923778056498074e+01 0 0 0
284 1 1 6.6458487734782992e+01 6.8618869099564037e+01 1.4920647193408605e+01 0 0 0
285 1 1 6.9301882177130580e+01 6.8580500654445203e+01 1.4927261052430129e+01 0 0 0
286 1 1 6.8611782735125914e+01 6.9820651119635002e+01 1.4924615761809630e+01 0 0 0
287 1 1 7.1454403075720606e+01 6.9784459966153946e+01 1.4930337125073052e+01 0 0 0
288 1 1 7.0764543414090440e+01 7.1024655862038401e+01 1.4928186758429183e+01 0 0 0
289 1 1 7.3606372080841425e+01 7.0990521447608927e+01 1.4933076178881858e+01 0 0 0
290 1 1 7.2916705543780154e+01 7.2230744082521340e+01 1.4931402512935740e+01 0 0 0
291 1 1 7.5757780151294597e+01 7.2198494983659387e+01 1.4935492598894438e+01 0 0 0
292 1 1 7.5068246339426182e+01 7.3438721029316469e+01 1.4934266160768731e+01 0 0 0
293 1 1 7.7908661375454557e+01 7.3408131325586268e+01 1.4937565221853008e+01 0 0 0
294 1 1 7.7219187445624996e+01 7.4648333794681221e+01 1.4936754339838807e+01 0 0 0
295 1 1 8.0059087757955268e+01 7.4619130310931794e+01 1.4939276113470724e+01 0 0 0
296 1 1 3.5701749587702636e+01 2.2435858592470576e-01 1.4938848850775416e+01 0 1 0
297 1 1 3.8541318910593965e+01 1.9623318463732969e-01 1.4940625792171678e+01 0 1 0
298 1 1 3.7851712758606965e+01 1.4363000507453398e+00 1.4940549802325817e+01 0 1 0
299 1 1 4.0691160301870930e+01 1.4089221362273485e+00 1.4941626767998310e+01 0 1 0
300 1 1 1.0724287710907670e+02 3.8620483230941964e+01 1.4941817031800392e+01 -1 0 0
301 1 1 1.0937688721161524e+02 3.9824359916888625e+01 1.4941310780942716e+01 -1 0 0
302 1 1 1.0868619064867970e+02 4.1066451607788636e+01 1.4941276802590263e+01 -1 0 0
303 1 1 2.4175475600989820e+01 4.1027953754980778e+01 1.4940625306889507e+01 0 0 0
304 1 1 1.1082053385679889e+02 4.2270066404852450e+01 1.4940179805537191e+01 -1 0 0
305 1 1 2.6310274842213904e+01 4.2230973090047733e+01 1.4939724626122000e+01 0 0 0
306 1 1 2.5619617784204760e+01 4.3473030271817159e+01 1.4938848335496466e+01 0 0 0
307 1 1 2.8445860280181094e+01 4.3433141206291126e+01 1.4938548308913717e+01 0 0 0
308 1 1 2.7755072476706932e+01 4.4675069836658523e+01 1.4937223160471115e+01 0 0 0
309 1 1 3.0582473860930843e+01 4.4634210107200175e+01 1.4937019968306389e+01 0 0 0
310 1 1 2.9891468351663299e+01 4.5875943378869302e+01 1.4935233231158591e+01 0 0 0
311 1 1 3.2720331693823717e+01 4.5833976919801955e+01 1.4935068283127331e+01 0 0 0
312 1 1 3.2029038140996228e+01 4.7075457601844711e+01 1.4932816953655404e+01 0 0 0
313 1 1 3.4859614795419581e+01 4.7032300577718587e+01 1.4932655849179717e+01 0 0 0
314 1 1 3.4167983980290053e+01 4.8273483951957658e+01 1.4929949965578011e+01 0 0 0
315 1 1 3.7000464836822566e+01 4.8229113127667205e+01 1.4929801502019664e+01 0 0 0
316 1 1 3.6308470149685597e+01 4.9469968443536409e+01 1.4926665004507436e+01 0 0 0
317 1 1 3.9142989879318527e+01 4.9424408087045464e+01 1.4926580390425190e+01 0 0 0
318 1 1 3.8450624720850797e+01 5.0664919409883275e+01 1.4923050582445926e+01 0 0 0
319 1 1 4.1287263944273057e+01 5.0618221832738527e+01 1.4923094418359572e+01 0 0 0
320 1 1 4.0594539979791257e+01 5.1858389916500577e+01 1.4919223749097341e+01 0 0 0
321 1 1 4.3433307374629358e+01 5.1810637605278075e+01 1.4919464139792840e+01 0 0 0
322 1 1 4.2740256292032143e+01 5.3050480869803074e+01 1.4915316357593094e+01 0 0 0
323 1 1 4.5581058865597981e+01 5.3001803325379527e+01 1.4915865993033714e+01 0 0 0
324 1 1 4.4887745041813282e+01 5.4241356111374103e+01 1.4911507505175461e+01 0 0 0
325 1 1 4.7730383736253110e+01 5.4191943335714775e+01 1.4912574792875157e+01 0 0 0
326 1 1 4.7036889868753086e+01 5.5431251642876532e+01 1.4908066613985460e+01 0 0 0
327 1 1 4.9881091569726543e+01 5.5381366241132554e+01 1.4909956542820503e+01 0 0 0
328 1 1 4.9187501613592900e+01 5.6620482308670006e+01 1.4905353805332910e+01 0 0 0
329 1 1 5.2032948930213088e+01 5.6570466694952913e+01 1.4908391018057529e+01 0 0 0
330 1 1 5.1339344595209617e+01 5.7809445204882977e+01 1.4903749907186734e+01 0 0 0
331 1 1 5.4185696704412344e+01 5.7759708485909194e+01 1.4908158152359011e+01 0 0 0
332 1 1 5.3492156560436477e+01 5.8998603501105535e+01 1.4903540753651127e+01 0 0 0
333 1 1 5.6339061264660316e+01 5.8949586763365268e+01 1.4909353716055341e+01 0 0 0
334 1 1 5.5645662239395314e+01 6.0188447231552985e+01 1.4904826445015475e+01 0 0 0
335 1 1 5.8492778154290853e+01 6.0140584773169955e+01 1.4911852175070880e+01 0 0 0
336 1 1 5.7799591923214351e+01 6.1379459518867982e+01 1.4907481255202296e+01 0 0 0
337 1 1 6.0646622289689354e+01 6.1333137002532965e+01 1.4915313870366928e+01 0 0 0
338 1 1 5.9953714388583869e+01 6.2572074974842174e+01 1.4911160508563016e+01 0 0 0
339 1 1 6.2800419224856121e+01 6.2527594251471363e+01 1.4919261809402583e+01 0 0 0
340 1 1 6.2107847113545894e+01 6.3766641004344763e+01 1.4915380847078218e+01 0 0 0
341 1 1 6.4954041512278053e+01 6.3724202089424736e+01 1.4923213230576833e+01 0 0 0
342 1 1 6.4261844825570009e+01 6.4963386012822085e+01 1.4919654615318382e+01 0 0 0
343 1 1 6.7107391669105112e+01 6.4923085125366768e+01 1.4926811479206474e+01 0 0 0
344 1 1 6.6415586618939500e+01 6.6162410145860818e+01 1.4923620302248587e+01 0 0 0
345 1 1 6.9260387089157462e+01 6.6124251513193812e+01 1.4929901377187051e+01 0 0 0
346 1 1 6.8568974083474714e+01 6.7363712437009809e+01 1.4927112948654715e+01 0 0 0
347 1 1 7.1412957241312711e+01 6.7327633829006004e+01 1.4932513763671357e+01 0 0 0
348 1 1 7.0721922430380062e+01 6.8567220721417556e+01 1.4930145392814014e+01 0 0 0
349 1 1 7.3565044524911912e+01 6.8533118299672196e+01 1.4934760224770018e+01 0 0 0
350 1 1 7.2874360750640037e+01 6.9772817745185151e+01 1.4932808076660576e+01 0 0 0
351 1 1 7.5716620185987949e+01 6.9740547245815108e+01 1.4936709292158277e+01 0 0 0
352 1 1 7.5026245634236233e+01 7.0980341260476365e+01 1.4935154255901001e+01 0 0 0
353 1 1 7.7867697944333756e+01 7.0949704744886787e+01 1.4938357522536647e+01 0 0 0
354 1 1 7.7177575925029799e+01 7.2189570402872903e+01 1.4937177929916157e+01 0 0 0
355 1 1 8.0018331707769022e+01 7.2160318755966998e+01 1.4939678772440230e+01 0 0 0
356 1 1 7.9328392440186462e+01 7.3400229482405322e+01 1.4938856168388121e+01 0 0 0
357 1 1 8.2168608427039260e+01 7.3372072573450382e+01 1.4940660984394993e+01 0 0 0