LAMMPS data file via write_data, version 30 Mar 2018, timestep = 962

42 atoms
6 atom types

4.6770533835422984e-02 8.2836969514845702e+00 xlo xhi
4.0504473469359682e-02 7.1738925320006643e+00 ylo yhi
0.0000000000000000e+00 1.0000000000000000e+02 zlo zhi
4.1184632088245907e+00 0.0000000000000000e+00 0.0000000000000000e+00 xy xz yz

Masses

1 95.94
2 32.066
3 32.066
4 95.94
5 32.066
6 32.066

Atoms # atomic

1 3 6.5211308974398978e+00 3.9282269642243034e-01 7.3460945303184717e+00 -1 0 0
2 2 6.5160877315774739e+00 3.8302831369468404e-01 4.2331418398060041e+00 -1 0 0
3 1 9.4602823910087128e+00 6.1573282437598511e+00 5.7958020306866178e+00 -1 -1 0
4 3 4.7413987148441183e+00 5.4713062303468094e+00 7.3460945414614596e+00 0 -1 0
5 2 4.7524024849200126e+00 5.4718358969703633e+00 4.2331418417228077e+00 0 -1 0
6 3 1.2331693862730559e+00 1.3907710511153786e+00 7.3460945163720464e+00 0 0 0
7 2 1.2272087986045419e+00 1.4000357570315851e+00 4.2331418362809705e+00 0 0 0
8 1 1.2402159450498827e+01 7.1738920070756063e+00 5.7886268867953765e+00 -1 -1 0
9 3 7.6936721074901468e+00 6.4902180945381875e+00 7.3569158052485024e+00 0 -1 0
10 2 7.6955099365728685e+00 6.4917605671557359e+00 4.2358732315700278e+00 0 -1 0
11 1 6.5165415451758149e+00 5.1344334299123258e+00 5.7958020300249684e+00 0 -1 0
12 3 1.0045860931526986e+01 4.4600108598169683e+00 7.3569158057081747e+00 -1 0 0
13 2 1.0046277835382783e+01 4.4576480314188682e+00 4.2358732305391031e+00 -1 0 0
14 1 8.8742648101432930e+00 3.0965262941577758e+00 5.7958020213426060e+00 -1 0 0
15 3 4.1652330143710730e+00 2.4182999902371254e+00 7.3570281360571466e+00 0 0 0
16 2 4.1652330083561653e+00 2.4182999928886439e+00 4.2344208816302453e+00 0 0 0
17 1 2.9936940327593846e+00 1.0565642843643455e+00 5.7939073476880347e+00 0 0 0
18 1 3.5717049413004811e+00 4.1137504317004518e+00 5.7939073530229699e+00 0 0 0
19 3 7.1115556261891664e+00 3.4380590746366506e+00 7.3569157952422790e+00 0 0 0
20 2 7.1093008816682204e+00 3.4388794383015102e+00 4.2358732283974279e+00 0 0 0
21 1 5.9303001570224447e+00 2.0845851961833057e+00 5.7939073474435725e+00 0 0 0
22 6 8.2836969864867935e+00 4.7960960262082972e+00 1.3703950118370006e+01 -1 -1 0
23 5 8.2836969797223663e+00 4.7960960217518336e+00 1.0581342863943105e+01 -1 -1 0
24 6 1.0634551721853342e+01 6.8313676971924098e+00 1.3705229161169575e+01 -1 -1 0
25 5 1.0639594904886065e+01 6.8215733230799698e+00 1.0592276470641680e+01 -1 -1 0
26 4 1.0048764131585310e+01 5.1298108245322203e+00 1.2144463648759389e+01 -1 -1 0
27 6 5.3456727820952947e+00 5.8143602510482646e+00 1.3705229157428207e+01 0 -1 0
28 5 5.3516333781242764e+00 5.8236249574670280e+00 1.0592276458015233e+01 0 -1 0
29 6 8.8708664693721602e+00 1.7425601183891877e+00 1.3705229163593181e+01 -1 0 0
30 5 8.8598627050358054e+00 1.7430897972012103e+00 1.0592276483191856e+01 -1 0 0
31 4 4.1652338192929088e+00 7.1738920637195633e+00 1.2149744113204870e+01 0 -1 0
32 6 3.5770474994927488e+00 7.2263544395925150e-01 1.3702497770411961e+01 0 0 0
33 5 3.5752096798915836e+00 7.2417791871173165e-01 1.0581455198949577e+01 0 0 0
34 4 7.1121580109533298e+00 6.1578317303601393e+00 1.2144463647495996e+01 0 -1 0
35 4 7.6901689124904804e+00 3.1006455828749515e+00 1.2144463655590785e+01 -1 0 0
36 6 2.9908384444612159e+00 3.7755165857606023e+00 1.3702497767858683e+01 0 0 0
37 5 2.9930931685639921e+00 3.7763369550592247e+00 1.0581455192133992e+01 0 0 0
38 4 2.3980791161702584e+00 2.0799625918779490e+00 1.2142568974319602e+01 0 0 0
39 6 5.9278153870266888e+00 2.7567479860597808e+00 1.3702497771223547e+01 0 0 0
40 5 5.9273984746725077e+00 2.7543851356521087e+00 1.0581455202718219e+01 0 0 0
41 4 5.3418199586588040e+00 1.0570677617377051e+00 1.2142568975781693e+01 0 0 0
42 4 4.7558023653556649e+00 4.1178697223824265e+00 1.2142568967845264e+01 0 0 0

Velocities

1 0.0000000000000000e+00 0.0000000000000000e+00 0.0000000000000000e+00
2 0.0000000000000000e+00 0.0000000000000000e+00 0.0000000000000000e+00
3 0.0000000000000000e+00 0.0000000000000000e+00 0.0000000000000000e+00
4 0.0000000000000000e+00 0.0000000000000000e+00 0.0000000000000000e+00
5 0.0000000000000000e+00 0.0000000000000000e+00 0.0000000000000000e+00
6 0.0000000000000000e+00 0.0000000000000000e+00 0.0000000000000000e+00
7 0.0000000000000000e+00 0.0000000000000000e+00 0.0000000000000000e+00
8 0.0000000000000000e+00 0.0000000000000000e+00 0.0000000000000000e+00
9 0.0000000000000000e+00 0.0000000000000000e+00 0.0000000000000000e+00
10 0.0000000000000000e+00 0.0000000000000000e+00 0.0000000000000000e+00
11 0.0000000000000000e+00 0.0000000000000000e+00 0.0000000000000000e+00
12 0.0000000000000000e+00 0.0000000000000000e+00 0.0000000000000000e+00
13 0.0000000000000000e+00 0.0000000000000000e+00 0.0000000000000000e+00
14 0.0000000000000000e+00 0.0000000000000000e+00 0.0000000000000000e+00
15 0.0000000000000000e+00 0.0000000000000000e+00 0.0000000000000000e+00
16 0.0000000000000000e+00 0.0000000000000000e+00 0.0000000000000000e+00
17 0.0000000000000000e+00 0.0000000000000000e+00 0.0000000000000000e+00
18 0.0000000000000000e+00 0.0000000000000000e+00 0.0000000000000000e+00
19 0.0000000000000000e+00 0.0000000000000000e+00 0.0000000000000000e+00
20 0.0000000000000000e+00 0.0000000000000000e+00 0.0000000000000000e+00
21 0.0000000000000000e+00 0.0000000000000000e+00 0.0000000000000000e+00
22 0.0000000000000000e+00 0.0000000000000000e+00 0.0000000000000000e+00
23 0.0000000000000000e+00 0.0000000000000000e+00 0.0000000000000000e+00
24 0.0000000000000000e+00 0.0000000000000000e+00 0.0000000000000000e+00
25 0.0000000000000000e+00 0.0000000000000000e+00 0.0000000000000000e+00
26 0.0000000000000000e+00 0.0000000000000000e+00 0.0000000000000000e+00
27 0.0000000000000000e+00 0.0000000000000000e+00 0.0000000000000000e+00
28 0.0000000000000000e+00 0.0000000000000000e+00 0.0000000000000000e+00
29 0.0000000000000000e+00 0.0000000000000000e+00 0.0000000000000000e+00
30 0.0000000000000000e+00 0.0000000000000000e+00 0.0000000000000000e+00
31 0.0000000000000000e+00 0.0000000000000000e+00 0.0000000000000000e+00
32 0.0000000000000000e+00 0.0000000000000000e+00 0.0000000000000000e+00
33 0.0000000000000000e+00 0.0000000000000000e+00 0.0000000000000000e+00
34 0.0000000000000000e+00 0.0000000000000000e+00 0.0000000000000000e+00
35 0.0000000000000000e+00 0.0000000000000000e+00 0.0000000000000000e+00
36 0.0000000000000000e+00 0.0000000000000000e+00 0.0000000000000000e+00
37 0.0000000000000000e+00 0.0000000000000000e+00 0.0000000000000000e+00
38 0.0000000000000000e+00 0.0000000000000000e+00 0.0000000000000000e+00
39 0.0000000000000000e+00 0.0000000000000000e+00 0.0000000000000000e+00
40 0.0000000000000000e+00 0.0000000000000000e+00 0.0000000000000000e+00
41 0.0000000000000000e+00 0.0000000000000000e+00 0.0000000000000000e+00
42 0.0000000000000000e+00 0.0000000000000000e+00 0.0000000000000000e+00
