LAMMPS data file via write_data, version 29 Sep 2021, timestep = 1308

28 atoms
1 atom types

-0.0810050705501223 6.5101805147501235 xlo xhi
-0.07015244886668943 5.637981703766601 ylo yhi
0 100 zlo zhi
3.2955928018768654 0 0 xy xz yz

Masses

1 12.011

Atoms # molecular

1 1 1 5.097824072881863 0.20189539427317854 14.74406803434368 -1 1 0
2 1 1 0.8607735783626295 1.01696056698233 14.7440680345395 0 1 0
3 1 1 3.2145878764707496 1.8325591019605953 14.746001659577118 0 1 0
4 1 1 7.922499759393914 3.463553403289633 14.745247408157336 -1 0 0
5 1 1 7.451643099498104 4.822736984428377 14.74512141439425 -1 0 0
6 1 1 3.6851659770608247 4.278821344071424 14.74406803425853 0 0 0
7 1 1 -0.08100491988889097 -0.07015228122139573 14.743209128566756 0 1 0
8 1 1 6.0393350262237755 5.094233234982481 14.745247408379166 0 0 0
9 1 1 2.273047451283615 0.7451173748939842 14.745132503985708 0 1 0
10 1 1 4.627110248951205 1.5608820424342817 14.745132503750197 0 1 0
11 1 1 6.981223069508838 2.3762068619429586 14.745121414673438 -1 0 0
12 1 1 2.743605927526383 3.191677891237481 14.745132503571876 0 0 0
13 1 1 5.568707229258784 2.648024819683498 14.745247408303456 0 0 0
14 1 1 5.0976758464197705 4.006867615229644 14.745121414444418 0 0 0
15 2 1 6.5101806106832045 3.735270473327863 18.253998339631973 -1 0 0
16 2 1 8.393416813490024 5.365934180488068 18.255931964094053 -1 0 0
17 2 1 6.980758704136249 1.2890082308458866 18.255931964202322 -1 1 0
18 2 1 6.03919865856454 2.376151685306436 18.254867495178303 -1 0 0
19 2 1 2.2731143762303283 2.9198047552753503 18.254752590706875 0 0 0
20 2 1 7.922702985193081 4.006947533664302 18.254867495479143 -1 0 0
21 2 1 4.156366315434878 4.550869008248441 18.255931964519807 0 0 0
22 2 1 -0.08100498050877183 -0.07015229502223033 18.256790870050363 0 1 0
23 2 1 2.743742165747368 0.47359634011052837 18.254752590710197 0 1 0
24 2 1 1.8020829888575252 1.5609619610599434 18.254878584465423 0 1 0
25 2 1 4.626906904042411 2.10427617183912 18.25475259030626 0 0 0
26 2 1 3.685630217807996 3.1916227142948492 18.254878584522295 0 0 0
27 2 1 5.568640189808654 4.8227122007924015 18.25486749559848 0 0 0
28 2 1 4.156050238775435 0.7450925920190588 18.25487858419709 0 1 0

Velocities

1 2.6450944745538735e-08 6.75753970533573e-08 2.3257923423977022e-08
2 -2.3049639492884527e-08 -1.4648515627177655e-08 2.550104431346342e-08
3 -4.37441183619037e-08 1.4504605906256025e-08 -1.8782931379978872e-08
4 -1.4091779195904346e-08 3.860855262071007e-08 7.591206624560607e-08
5 -3.90014679442944e-08 5.249119326458744e-09 8.29088241389324e-08
6 -2.3138442725497646e-08 4.9635911366609296e-08 2.2586189465708633e-08
7 1.935257820271786e-08 -2.5628674729210088e-08 -4.419165492177719e-08
8 1.9527318537335158e-08 -2.3517169567412756e-09 7.532688685365937e-08
9 1.1019644027145854e-08 -3.000531225517579e-08 -6.542516492395261e-08
10 6.58385832166915e-08 -1.4365591563374845e-08 -6.29938756912025e-08
11 6.846849161347662e-08 -3.74040826698277e-08 8.150733730394787e-08
12 -3.06871232857145e-08 -2.1732763448226735e-08 -6.248284808278892e-08
13 1.0494056624212841e-08 3.8770945636689026e-08 7.639567197357676e-08
14 -4.768464324037186e-08 -6.82716014565702e-08 8.278379153331545e-08
15 6.444928143836742e-08 -1.802569192663825e-08 2.3054133792650827e-08
16 2.998876255958208e-08 -2.0277287146184462e-08 -1.62000067348667e-08
17 1.1121275128677884e-08 -2.0871888429086136e-08 -1.895471427486656e-08
18 -9.087712582113117e-08 -1.7554639453361883e-08 5.79564494296382e-08
19 6.205984181862893e-08 -3.0642503614932264e-08 -7.113650216111398e-08
20 -1.1645081915334786e-08 3.6814264171706584e-09 5.600477360223895e-08
21 4.918198771459602e-08 2.015884409010825e-08 -1.859344927122373e-08
22 -2.6285311212175315e-08 1.0374523663341988e-08 4.063166214597618e-08
23 6.63856270414116e-10 1.2485040099771246e-09 -7.190097392683836e-08
24 -6.285934144335455e-08 3.9899052238320074e-08 -8.635622949890563e-08
25 1.8829403164705337e-08 -2.6735241032454674e-08 -6.960765256458647e-08
26 5.571265270273813e-09 2.6046529757164082e-08 -8.680992993589971e-08
27 -4.8445644702931184e-08 6.990013090891309e-08 5.763020155654525e-08
28 -1.5075528791565327e-09 -3.713805401433387e-08 -8.802102240124105e-08
